[Molden Format]
[Atoms] (Angs)
 H     1   1   0.00000000   0.00000000   -1.21710760
 Be     2   4   0.00000000   0.00000000   0.00000000
 H     3   1   0.00000000   0.00000000   1.21710760
[STO]
1 0 0 0 0 0.36513228 0.32336924 
1 0 0 0 0 0.48684304 0.49785951 
1 0 0 0 0 0.83610000 1.12049699 
1 1 0 0 0 0.66147152 0.98559864 
1 0 1 0 0 0.66147152 0.98559864 
1 0 0 1 0 0.66147152 0.98559864 
2 0 0 0 0 2.88930761 7.19803622 
2 0 0 0 0 1.68278355 3.19937940 
2 0 0 0 1 1.17477342 2.39192122 
2 0 0 0 1 0.64559621 0.53550560 
2 0 0 0 1 0.41275823 0.17502535 
2 1 0 0 0 0.42334177 0.32296096 
2 0 1 0 0 0.42334177 0.32296096 
2 0 0 1 0 0.42334177 0.32296096 
2 1 0 0 0 0.79376583 1.55472367 
2 0 1 0 0 0.79376583 1.55472367 
2 0 0 1 0 0.79376583 1.55472367 
2 1 1 0 0 1.00543671 4.35528959 
2 0 1 1 0 1.00543671 4.35528959 
2 0 0 2 0 1.00543671 2.51452762 
2 2 0 0 0 1.00543671 1.25726381 
2 0 2 0 0 1.00543671 1.25726381 
2 1 0 1 0 1.00543671 4.35528959 
2 2 0 0 0 1.00543671 2.17764480 
2 0 2 0 0 1.00543671 2.17764480 
3 0 0 0 0 0.36513228 0.32336924 
3 0 0 0 0 0.48684304 0.49785951 
3 0 0 0 0 0.83610000 1.12049699 
3 1 0 0 0 0.66147152 0.98559864 
3 0 1 0 0 0.66147152 0.98559864 
3 0 0 1 0 0.66147152 0.98559864 
[MO]
Sym=X
Ene=0.00000000
Spin=Alpha
Occup=1
 1  0.01648140
 2  -0.00974938
 3  0.00273896
 4  0.00000000
 5  0.00008736
 6  0.00333187
 7  0.19985446
 8  0.84046853
 9  -0.05085447
 10  0.02297399
 11  -0.02154148
 12  0.00000000
 13  -0.00004866
 14  -0.00000008
 15  0.00000000
 16  -0.00000488
 17  0.00000013
 18  0.00000000
 19  0.00003389
 20  -0.00033101
 21  0.00033101
 22  0.00033101
 23  0.00000000
 24  0.00000000
 25  -0.00000000
 26  0.01648166
 27  -0.00974967
 28  0.00273900
 29  0.00000000
 30  0.00000371
 31  -0.00333182
Sym=X
Ene=0.00000000
Spin=Alpha
Occup=1
 1  0.06435302
 2  0.34743553
 3  0.08335605
 4  0.00000000
 5  0.00266897
 6  0.03352659
 7  -0.01955993
 8  -0.19516029
 9  -0.07955931
 10  0.46736331
 11  -0.10804526
 12  0.00000000
 13  -0.00181743
 14  0.00000290
 15  0.00000000
 16  0.00026050
 17  0.00000455
 18  0.00000000
 19  0.00056626
 20  0.03243960
 21  -0.03243960
 22  -0.03243960
 23  0.00000000
 24  0.00000004
 25  -0.00000004
 26  0.06434580
 27  0.34745971
 28  0.08335891
 29  0.00000000
 30  0.00013977
 31  -0.03352793
Sym=X
Ene=0.00000000
Spin=Alpha
Occup=1
 1  0.12283045
 2  -0.54526372
 3  -0.08073582
 4  0.00000000
 5  -0.00005298
 6  -0.03532934
 7  -0.00001823
 8  0.00003369
 9  -0.00003498
 10  0.00004138
 11  -0.00004080
 12  0.00000000
 13  -0.00004974
 14  0.14277339
 15  0.00000000
 16  0.00004341
 17  0.25613034
 18  0.00000000
 19  -0.00002507
 20  0.00000089
 21  -0.00000089
 22  -0.00000089
 23  0.00000000
 24  -0.00000001
 25  0.00000001
 26  -0.12276965
 27  0.54519108
 28  0.08073930
 29  0.00000000
 30  0.00000003
 31  -0.03532649
Sym=X
Ene=0.00000000
Spin=Alpha
Occup=0
 1  0.00000000
 2  0.00000000
 3  0.00000000
 4  0.00593158
 5  0.00000000
 6  0.00000000
 7  0.00000000
 8  0.00000000
 9  0.00000000
 10  0.00000000
 11  0.00000000
 12  1.06966215
 13  0.00000000
 14  0.00000000
 15  -0.09967176
 16  0.00000000
 17  0.00000000
 18  -0.00004523
 19  0.00000000
 20  0.00000000
 21  -0.00000000
 22  -0.00000000
 23  0.00000014
 24  0.00000000
 25  -0.00000000
 26  0.00000000
 27  0.00000000
 28  0.00000000
 29  0.00593228
 30  0.00000000
 31  0.00000000
Sym=X
Ene=0.00000000
Spin=Alpha
Occup=0
 1  0.00261089
 2  -0.00313485
 3  0.00038978
 4  0.00000000
 5  -0.00498507
 6  -0.00014600
 7  -0.00179964
 8  0.00291248
 9  -0.00398229
 10  0.00662662
 11  -0.00479506
 12  0.00000000
 13  -1.07031988
 14  -0.00039300
 15  0.00000000
 16  0.09983607
 17  0.00008328
 18  0.00000000
 19  0.00013696
 20  0.00012242
 21  -0.00012242
 22  -0.00012242
 23  0.00000000
 24  -0.00004521
 25  0.00004521
 26  0.00245981
 27  -0.00251148
 28  0.00028750
 29  0.00000000
 30  -0.00591711
 31  0.00014915
Sym=X
Ene=0.00000000
Spin=Alpha
Occup=0
 1  0.93493039
 2  -0.19086344
 3  0.04357538
 4  0.00000000
 5  -0.03608416
 6  -0.05381891
 7  -0.05162457
 8  0.04196537
 9  -0.64198467
 10  2.35977241
 11  -3.40953029
 12  0.00000000
 13  0.02590955
 14  0.00006409
 15  0.00000000
 16  -0.00707265
 17  -0.00000699
 18  0.00000000
 19  -0.00467683
 20  0.03304161
 21  -0.03304161
 22  -0.03304161
 23  0.00000000
 24  -0.00000056
 25  0.00000056
 26  0.93445769
 27  -0.19051826
 28  0.04355068
 29  0.00000000
 30  -0.00014708
 31  0.05382827
Sym=X
Ene=0.00000000
Spin=Alpha
Occup=0
 1  -7.65302806
 2  5.45747721
 3  -0.36254802
 4  0.00000000
 5  0.00004558
 6  -0.17351574
 7  0.00001586
 8  -0.00002799
 9  -0.00000485
 10  0.00005441
 11  -0.00040650
 12  0.00000000
 13  -0.00002364
 14  -2.41780632
 15  0.00000000
 16  -0.00010620
 17  0.33371806
 18  0.00000000
 19  0.00002519
 20  -0.00000173
 21  0.00000173
 22  0.00000173
 23  0.00000000
 24  -0.00000000
 25  0.00000000
 26  7.65396808
 27  -5.45808322
 28  0.36259613
 29  0.00000000
 30  -0.00003463
 31  -0.17352568
Sym=X
Ene=0.00000000
Spin=Alpha
Occup=0
 1  -6.77125203
 2  4.75275907
 3  -0.37728458
 4  0.00000000
 5  -0.00051274
 6  -0.08666089
 7  -0.01421968
 8  0.03144171
 9  0.25087137
 10  -0.32075875
 11  4.69236166
 12  0.00000000
 13  0.00082401
 14  -0.00016780
 15  0.00000000
 16  -0.00024913
 17  0.00002313
 18  0.00000000
 19  -0.00004520
 20  0.02601988
 21  -0.02601988
 22  -0.02601988
 23  0.00000000
 24  0.00000003
 25  -0.00000003
 26  -6.77018045
 27  4.75199333
 28  -0.37723346
 29  0.00000000
 30  -0.00000982
 31  0.08663612
Sym=X
Ene=0.00000000
Spin=Alpha
Occup=0
 1  7.85804021
 2  -6.93733810
 3  0.58891286
 4  0.00000000
 5  -0.14852926
 6  0.16123538
 7  -0.12467730
 8  -0.01719158
 9  -1.25589323
 10  4.41392683
 11  -6.69584610
 12  0.00000000
 13  0.12781539
 14  -0.00044255
 15  0.00000000
 16  -0.10224875
 17  0.00010497
 18  0.00000000
 19  0.01209850
 20  -0.15533373
 21  0.15533373
 22  0.15533373
 23  0.00000000
 24  -0.00000930
 25  0.00000930
 26  7.85905730
 27  -6.93771153
 28  0.58890540
 29  0.00000000
 30  0.05640769
 31  -0.16125546
Sym=X
Ene=0.00000000
Spin=Alpha
Occup=0
 1  0.00000000
 2  0.00000000
 3  0.00000000
 4  -0.28948583
 5  0.00000000
 6  0.00000000
 7  0.00000000
 8  0.00000000
 9  0.00000000
 10  0.00000000
 11  0.00000000
 12  1.47800230
 13  0.00000000
 14  0.00000000
 15  -1.54924885
 16  0.00000000
 17  0.00000000
 18  0.00005386
 19  0.00000000
 20  0.00000000
 21  -0.00000000
 22  -0.00000000
 23  -0.00000475
 24  0.00000000
 25  -0.00000000
 26  0.00000000
 27  0.00000000
 28  0.00000000
 29  -0.28952958
 30  0.00000000
 31  0.00000000
Sym=X
Ene=0.00000000
Spin=Alpha
Occup=0
 1  -0.14318544
 2  0.12288529
 3  -0.00982582
 4  0.00000000
 5  -0.03648687
 6  -0.00549619
 7  -0.01158210
 8  0.02520121
 9  -0.00414425
 10  -0.05315771
 11  0.11960999
 12  0.00000000
 13  1.38536429
 14  0.00415091
 15  0.00000000
 16  -1.46222611
 17  -0.00108074
 18  0.00000000
 19  -0.04454731
 20  0.00430159
 21  -0.00430159
 22  -0.00430159
 23  0.00000000
 24  -0.00003553
 25  0.00003553
 26  -0.15367444
 27  0.12743417
 28  -0.00986228
 29  0.00000000
 30  -0.49281531
 31  0.00574169
Sym=X
Ene=0.00000000
Spin=Alpha
Occup=0
 1  0.00000000
 2  0.00000000
 3  0.00000000
 4  -0.67479924
 5  0.00000000
 6  0.00000000
 7  0.00000000
 8  0.00000000
 9  0.00000000
 10  0.00000000
 11  0.00000000
 12  0.00004626
 13  0.00000000
 14  0.00000000
 15  -0.00005115
 16  0.00000000
 17  0.00000000
 18  0.00004639
 19  0.00000000
 20  0.00000000
 21  -0.00000000
 22  -0.00000000
 23  0.13971306
 24  0.00000000
 25  -0.00000000
 26  0.00000000
 27  0.00000000
 28  0.00000000
 29  0.67478366
 30  0.00000000
 31  0.00000000
Sym=X
Ene=0.00000000
Spin=Alpha
Occup=0
 1  -6.01280558
 2  1.74666095
 3  0.10950086
 4  0.00000000
 5  -0.00370935
 6  -0.02351838
 7  -0.00125099
 8  0.00247882
 9  -0.00158248
 10  -0.00114486
 11  0.00571990
 12  0.00000000
 13  0.00332201
 14  -5.83676694
 15  0.00000000
 16  -0.00444198
 17  1.35097113
 18  0.00000000
 19  0.00110238
 20  0.00028220
 21  -0.00028220
 22  -0.00028220
 23  0.00000000
 24  -0.00000041
 25  0.00000041
 26  5.99759157
 27  -1.73441885
 28  -0.11038189
 29  0.00000000
 30  0.00386679
 31  -0.02266261
Sym=X
Ene=0.00000000
Spin=Alpha
Occup=0
 1  1.02870040
 2  -0.84036542
 3  0.06088139
 4  0.00000000
 5  0.56812921
 6  0.06381254
 7  0.19260275
 8  -0.37887135
 9  0.25807170
 10  0.11884133
 11  -0.79175236
 12  0.00000000
 13  -0.37866376
 14  -0.03816715
 15  0.00000000
 16  0.55774444
 17  0.00884580
 18  0.00000000
 19  -0.16419030
 20  -0.04122674
 21  0.04122674
 22  0.04122674
 23  0.00000000
 24  0.00006662
 25  -0.00006662
 26  1.10702429
 27  -0.86293888
 28  0.05942988
 29  0.00000000
 30  -0.63411877
 31  -0.06406245
Sym=X
Ene=0.00000000
Spin=Alpha
Occup=0
 1  11.08471728
 2  -6.85389910
 3  0.36451078
 4  0.00000000
 5  0.00017712
 6  0.82171679
 7  0.00006372
 8  -0.00012127
 9  0.00013534
 10  -0.00014621
 11  -0.00000927
 12  0.00000000
 13  -0.00029775
 14  6.48158382
 15  0.00000000
 16  0.00014134
 17  -2.43029285
 18  0.00000000
 19  0.00006809
 20  -0.00000687
 21  0.00000687
 22  0.00000687
 23  0.00000000
 24  0.00000000
 25  -0.00000000
 26  -11.08457125
 27  6.85383947
 28  -0.36451446
 29  0.00000000
 30  0.00016666
 31  0.82167403
Sym=X
Ene=0.00000000
Spin=Alpha
Occup=0
 1  0.00000000
 2  0.00000000
 3  0.00000000
 4  -0.96725582
 5  0.00000000
 6  0.00000000
 7  0.00000000
 8  0.00000000
 9  0.00000000
 10  0.00000000
 11  0.00000000
 12  0.75407365
 13  0.00000000
 14  0.00000000
 15  0.43423939
 16  0.00000000
 17  0.00000000
 18  -0.00002397
 19  0.00000000
 20  0.00000000
 21  -0.00000000
 22  -0.00000000
 23  0.00000068
 24  0.00000000
 25  -0.00000000
 26  0.00000000
 27  0.00000000
 28  0.00000000
 29  -0.96725401
 30  0.00000000
 31  0.00000000
Sym=X
Ene=0.00000000
Spin=Alpha
Occup=0
 1  -0.53055018
 2  0.08703648
 3  0.02674946
 4  0.00000000
 5  -0.94996232
 6  -0.29802712
 7  -0.36210379
 8  0.76192874
 9  -0.97654488
 10  1.55968929
 11  -0.11764163
 12  0.00000000
 13  0.76856749
 14  0.00084490
 15  0.00000000
 16  0.35252257
 17  -0.00033472
 18  0.00000000
 19  0.07846674
 20  0.00428437
 21  -0.00428437
 22  -0.00428437
 23  0.00000000
 24  0.00000060
 25  -0.00000060
 26  -0.53326138
 27  0.08863374
 28  0.02666284
 29  0.00000000
 30  -0.90182721
 31  0.29825759
Sym=X
Ene=0.00000000
Spin=Alpha
Occup=0
 1  3.03975271
 2  -1.48458258
 3  0.07170410
 4  0.00000000
 5  -0.25682133
 6  1.17630576
 7  -0.01208607
 8  -0.38931576
 9  0.66872247
 10  -3.02247666
 11  -1.08778023
 12  0.00000000
 13  0.23713104
 14  0.00012146
 15  0.00000000
 16  0.06812034
 17  -0.00004883
 18  0.00000000
 19  0.09612266
 20  0.17814697
 21  -0.17814697
 22  -0.17814697
 23  0.00000000
 24  -0.00015342
 25  0.00015342
 26  3.03942223
 27  -1.48440990
 28  0.07169609
 29  0.00000000
 30  -0.26052426
 31  -1.17628858
Sym=X
Ene=0.00000000
Spin=Alpha
Occup=0
 1  0.00000000
 2  0.00000000
 3  0.00000000
 4  -0.00006084
 5  0.00000000
 6  0.00000000
 7  0.00000000
 8  0.00000000
 9  0.00000000
 10  0.00000000
 11  0.00000000
 12  0.00001315
 13  0.00000000
 14  0.00000000
 15  -0.00008934
 16  0.00000000
 17  0.00000000
 18  -0.99999999
 19  0.00000000
 20  0.00000000
 21  -0.00000000
 22  -0.00000000
 23  -0.00006091
 24  0.00000000
 25  -0.00000000
 26  0.00000000
 27  0.00000000
 28  0.00000000
 29  0.00007549
 30  0.00000000
 31  0.00000000
Sym=X
Ene=0.00000000
Spin=Alpha
Occup=0
 1  0.00050344
 2  -0.00026386
 3  0.00001560
 4  0.00000000
 5  -0.00011599
 6  0.00018301
 7  -0.00002978
 8  -0.00000837
 9  0.00003577
 10  -0.00039713
 11  -0.00021240
 12  0.00000000
 13  0.00006534
 14  0.00000026
 15  0.00000000
 16  -0.00007512
 17  -0.00000007
 18  0.00000000
 19  -0.00003715
 20  0.00003129
 21  -0.00003129
 22  -0.00003129
 23  0.00000000
 24  0.99999998
 25  -0.99999998
 26  0.00050287
 27  -0.00026364
 28  0.00001561
 29  0.00000000
 30  0.00001780
 31  -0.00018301
Sym=X
Ene=0.00000000
Spin=Alpha
Occup=0
 1  0.00000000
 2  0.00000000
 3  0.00000000
 4  -0.71687767
 5  0.00000000
 6  0.00000000
 7  0.00000000
 8  0.00000000
 9  0.00000000
 10  0.00000000
 11  0.00000000
 12  0.00000008
 13  0.00000000
 14  0.00000000
 15  0.00000038
 16  0.00000000
 17  0.00000000
 18  0.00005142
 19  0.00000000
 20  0.00000000
 21  -0.00000000
 22  -0.00000000
 23  -1.31055486
 24  0.00000000
 25  -0.00000000
 26  0.00000000
 27  0.00000000
 28  0.00000000
 29  0.71687710
 30  0.00000000
 31  0.00000000
Sym=X
Ene=0.00000000
Spin=Alpha
Occup=0
 1  1.20469172
 2  -0.95287146
 3  0.09660272
 4  0.00000000
 5  -0.73738630
 6  0.16784025
 7  -0.30107770
 8  0.65508148
 9  -1.12993928
 10  1.05617791
 11  -1.21212704
 12  0.00000000
 13  0.03351801
 14  0.00085352
 15  0.00000000
 16  0.00345315
 17  0.00018941
 18  0.00000000
 19  -1.26735043
 20  0.04174863
 21  -0.04174863
 22  -0.04174863
 23  0.00000000
 24  -0.00004739
 25  0.00004739
 26  1.20182652
 27  -0.95203230
 28  0.09665674
 29  0.00000000
 30  0.67243813
 31  -0.16701766
Sym=X
Ene=0.00000000
Spin=Alpha
Occup=0
 1  5.65447881
 2  -1.16144030
 3  -0.20089403
 4  0.00000000
 5  0.00015435
 6  1.68969070
 7  0.00006631
 8  -0.00015520
 9  0.00028442
 10  -0.00027008
 11  0.00031048
 12  0.00000000
 13  -0.00000128
 14  3.55639698
 15  0.00000000
 16  -0.00001783
 17  1.22673755
 18  0.00000000
 19  0.00027619
 20  -0.00000619
 21  0.00000619
 22  0.00000619
 23  0.00000000
 24  0.00000001
 25  -0.00000001
 26  -5.65508178
 27  1.16190987
 28  0.20084764
 29  0.00000000
 30  -0.00014288
 31  1.68977319
Sym=X
Ene=0.00000000
Spin=Alpha
Occup=0
 1  4.02590382
 2  -2.63310424
 3  0.19940790
 4  0.00000000
 5  0.32204334
 6  0.67226577
 7  -0.13681307
 8  1.17667837
 9  -3.45753872
 10  3.05278222
 11  -4.34447641
 12  0.00000000
 13  -0.12605152
 14  0.00001078
 15  0.00000000
 16  -0.00804417
 17  0.00003249
 18  0.00000000
 19  0.28449258
 20  -0.22616595
 21  0.22616595
 22  0.22616595
 23  0.00000000
 24  0.00000441
 25  -0.00000441
 26  4.02587761
 27  -2.63314357
 28  0.19941812
 29  0.00000000
 30  -0.08426684
 31  -0.67224596
Sym=X
Ene=0.00000000
Spin=Alpha
Occup=0
 1  1.15466527
 2  -5.83551507
 3  1.12067784
 4  0.00000000
 5  0.06349068
 6  -1.76136152
 7  -0.16869883
 8  0.88021326
 9  -2.15241860
 10  8.82136391
 11  -1.03491804
 12  0.00000000
 13  -0.03145605
 14  -0.00000311
 15  0.00000000
 16  -0.00096000
 17  0.00000208
 18  0.00000000
 19  0.04002144
 20  2.24931779
 21  -2.24931779
 22  -2.24931779
 23  0.00000000
 24  0.00000022
 25  -0.00000022
 26  1.15467390
 27  -5.83551997
 28  1.12067831
 29  0.00000000
 30  -0.00552440
 31  1.76136005
Sym=X
Ene=0.00000000
Spin=Alpha
Occup=0
 1  0.00000000
 2  0.00000000
 3  0.00000000
 4  0.00000000
 5  0.00000000
 6  0.00000000
 7  0.00000000
 8  0.00000000
 9  0.00000000
 10  0.00000000
 11  0.00000000
 12  0.00000000
 13  0.00000000
 14  0.00000000
 15  0.00000000
 16  0.00000000
 17  0.00000000
 18  0.00000000
 19  0.00000000
 20  0.00000000
 21  -0.00000000
 22  -0.00000000
 23  0.00000000
 24  0.00000000
 25  -0.00000000
 26  0.00000000
 27  0.00000000
 28  0.00000000
 29  0.00000000
 30  0.00000000
 31  0.00000000
Sym=X
Ene=0.00000000
Spin=Alpha
Occup=0
 1  0.00000000
 2  0.00000000
 3  0.00000000
 4  0.00000000
 5  0.00000000
 6  0.00000000
 7  0.00000000
 8  0.00000000
 9  0.00000000
 10  0.00000000
 11  0.00000000
 12  0.00000000
 13  0.00000000
 14  0.00000000
 15  0.00000000
 16  0.00000000
 17  0.00000000
 18  0.00000000
 19  0.00000000
 20  0.00000000
 21  -0.00000000
 22  -0.00000000
 23  0.00000000
 24  0.00000000
 25  -0.00000000
 26  0.00000000
 27  0.00000000
 28  0.00000000
 29  0.00000000
 30  0.00000000
 31  0.00000000
Sym=X
Ene=0.00000000
Spin=Alpha
Occup=0
 1  0.00000000
 2  0.00000000
 3  0.00000000
 4  0.00000000
 5  0.00000000
 6  0.00000000
 7  0.00000000
 8  0.00000000
 9  0.00000000
 10  0.00000000
 11  0.00000000
 12  0.00000000
 13  0.00000000
 14  0.00000000
 15  0.00000000
 16  0.00000000
 17  0.00000000
 18  0.00000000
 19  0.00000000
 20  0.00000000
 21  -0.00000000
 22  -0.00000000
 23  0.00000000
 24  0.00000000
 25  -0.00000000
 26  0.00000000
 27  0.00000000
 28  0.00000000
 29  0.00000000
 30  0.00000000
 31  0.00000000
