[Molden Format]
[Atoms] (Angs)
 Li     1   3   0.00000000   0.00000000   -0.79376583
 H     2   1   0.00000000   0.00000000   0.79376583
[STO]
1 0 0 0 0 2.24371140 4.92576681 
1 0 0 0 0 1.19594051 1.91684820 
1 0 0 0 1 1.24885823 2.78704797 
1 0 0 0 1 0.35984051 0.12420432 
1 0 0 0 1 0.24342152 0.04674757 
1 1 0 0 0 0.31750633 0.15732697 
1 0 1 0 0 0.31750633 0.15732697 
1 0 0 1 0 0.31750633 0.15732697 
1 1 0 0 0 0.63501266 0.88997576 
1 0 1 0 0 0.63501266 0.88997576 
1 0 0 1 0 0.63501266 0.88997576 
1 1 1 0 0 0.63501266 0.87199460 
1 0 1 1 0 0.63501266 0.87199460 
1 0 0 2 0 0.63501266 0.50344632 
1 2 0 0 0 0.63501266 0.25172316 
1 0 2 0 0 0.63501266 0.25172316 
1 1 0 1 0 0.63501266 0.87199460 
1 2 0 0 0 0.63501266 0.43599730 
1 0 2 0 0 0.63501266 0.43599730 
2 0 0 0 0 0.36513228 0.32336924 
2 0 0 0 0 0.48684304 0.49785951 
2 0 0 0 0 0.83610000 1.12049699 
2 1 0 0 0 0.66147152 0.98559864 
2 0 1 0 0 0.66147152 0.98559864 
2 0 0 1 0 0.66147152 0.98559864 
[MO]
Sym=X
Ene=0.00000000
Spin=Alpha
Occup=1
 1  0.17453429
 2  0.91474802
 3  -0.08328822
 4  -0.01498753
 5  0.00740600
 6  0.00064589
 7  0.00000000
 8  0.00225642
 9  -0.00089464
 10  0.00000000
 11  -0.01485278
 12  0.00000000
 13  0.00000000
 14  -0.00290033
 15  0.00290033
 16  0.00290033
 17  -0.00002040
 18  0.00000002
 19  -0.00000002
 20  0.00292379
 21  0.01003747
 22  -0.00065551
 23  0.00002556
 24  0.00000000
 25  -0.00413408
Sym=X
Ene=0.00000000
Spin=Alpha
Occup=1
 1  0.02009597
 2  0.11209316
 3  0.02906958
 4  -0.33601004
 5  0.10006744
 6  -0.00517380
 7  0.00000000
 8  -0.08691318
 9  0.00620538
 10  0.00000000
 11  -0.09849804
 12  0.00000000
 13  0.00000000
 14  -0.01666711
 15  0.01666711
 16  0.01666711
 17  -0.00008569
 18  0.00000072
 19  -0.00000072
 20  -0.25559307
 21  -0.42092773
 22  -0.10031614
 23  0.00005179
 24  0.00000000
 25  0.02968165
Sym=X
Ene=0.00000000
Spin=Alpha
Occup=0
 1  0.00009092
 2  -0.08079029
 3  0.03689039
 4  -0.25203058
 5  1.06872501
 6  0.03048694
 7  0.00000000
 8  -0.60356344
 9  -0.02405988
 10  0.00000000
 11  0.06990472
 12  0.00000000
 13  0.00000000
 14  -0.01553843
 15  0.01553843
 16  0.01553843
 17  0.00010401
 18  -0.00000124
 19  0.00000124
 20  -0.22913935
 21  0.19902239
 22  -0.08430542
 23  -0.00083487
 24  0.00000000
 25  -0.02585631
Sym=X
Ene=0.00000000
Spin=Alpha
Occup=0
 1  0.00000000
 2  0.00000000
 3  0.00000000
 4  0.00000000
 5  0.00000000
 6  0.00000000
 7  -1.14439225
 8  0.00000000
 9  0.00000000
 10  0.19982036
 11  0.00000000
 12  -0.00011133
 13  0.04147264
 14  0.00000000
 15  -0.00000000
 16  -0.00000000
 17  0.00000000
 18  0.00000000
 19  -0.00000000
 20  0.00000000
 21  0.00000000
 22  0.00000000
 23  0.00000000
 24  0.01439609
 25  0.00000000
Sym=X
Ene=0.00000000
Spin=Alpha
Occup=0
 1  0.00927992
 2  -0.00004931
 3  0.03478599
 4  -0.18022035
 5  0.36088721
 6  1.07788430
 7  0.00000000
 8  0.20375084
 9  -0.11758265
 10  0.00000000
 11  -0.04593131
 12  0.00000000
 13  0.00000000
 14  -0.01154375
 15  0.01154375
 16  0.01154375
 17  -0.04410638
 18  0.00012113
 19  -0.00012113
 20  -1.07002484
 21  1.09187825
 22  -0.23551649
 23  -0.01124192
 24  0.00000000
 25  -0.00000982
Sym=X
Ene=0.00000000
Spin=Alpha
Occup=0
 1  -0.06519903
 2  0.00778756
 3  -0.22874670
 4  1.58051958
 5  -2.26291591
 6  0.11637216
 7  0.00000000
 8  -1.09043779
 9  0.01851027
 10  0.00000000
 11  0.19256729
 12  0.00000000
 13  0.00000000
 14  -0.00742446
 15  0.00742446
 16  0.00742446
 17  -0.00711859
 18  0.00002019
 19  -0.00002019
 20  2.39983463
 21  -1.73811654
 22  0.17082115
 23  -0.00018092
 24  0.00000000
 25  -0.01554649
Sym=X
Ene=0.00000000
Spin=Alpha
Occup=0
 1  0.05330185
 2  -0.09976838
 3  0.12714627
 4  -3.40344311
 5  0.64593388
 6  0.00004342
 7  0.00000000
 8  -2.45770271
 9  0.00073357
 10  0.00000000
 11  0.59607961
 12  0.00000000
 13  0.00000000
 14  -0.09374030
 15  0.09374030
 16  0.09374030
 17  -0.00013681
 18  0.00000083
 19  -0.00000083
 20  7.32231917
 21  -4.67579940
 22  0.38029420
 23  0.00006397
 24  0.00000000
 25  -0.19045991
Sym=X
Ene=0.00000000
Spin=Alpha
Occup=0
 1  -0.01718030
 2  -0.00014185
 3  -0.10260025
 4  -0.75029220
 5  -0.82713061
 6  -0.21207640
 7  0.00000000
 8  -0.57114598
 9  0.35083961
 10  0.00000000
 11  -0.30642996
 12  0.00000000
 13  0.00000000
 14  0.04874912
 15  -0.04874912
 16  -0.04874912
 17  -0.02186198
 18  0.00009421
 19  -0.00009421
 20  8.85536290
 21  -8.41319769
 22  1.13514293
 23  0.02474753
 24  0.00000000
 25  0.04305105
Sym=X
Ene=0.00000000
Spin=Alpha
Occup=0
 1  0.00000000
 2  0.00000000
 3  0.00000000
 4  0.00000000
 5  0.00000000
 6  0.00000000
 7  1.02227601
 8  0.00000000
 9  0.00000000
 10  -1.44242647
 11  0.00000000
 12  -0.00168503
 13  0.02552976
 14  0.00000000
 15  -0.00000000
 16  -0.00000000
 17  0.00000000
 18  0.00000000
 19  -0.00000000
 20  0.00000000
 21  0.00000000
 22  0.00000000
 23  0.00000000
 24  -0.21107133
 25  0.00000000
Sym=X
Ene=0.00000000
Spin=Alpha
Occup=0
 1  0.00010131
 2  -0.00030505
 3  0.00060965
 4  0.00232916
 5  0.00343316
 6  0.08005781
 7  0.00000000
 8  0.00987124
 9  -0.00998447
 10  0.00000000
 11  -0.01086328
 12  0.00000000
 13  0.00000000
 14  0.00102019
 15  -0.00102019
 16  -0.00102019
 17  -0.81207793
 18  0.00002393
 19  -0.00002393
 20  -0.04178732
 21  0.05208645
 22  -0.01640098
 23  -0.30974215
 24  0.00000000
 25  0.00203288
Sym=X
Ene=0.00000000
Spin=Alpha
Occup=0
 1  0.00000000
 2  0.00000000
 3  0.00000000
 4  0.00000000
 5  0.00000000
 6  0.00000000
 7  0.07305116
 8  0.00000000
 9  0.00000000
 10  -0.20545632
 11  0.00000000
 12  -0.00039228
 13  0.82572886
 14  0.00000000
 15  -0.00000000
 16  -0.00000000
 17  0.00000000
 18  0.00000000
 19  -0.00000000
 20  0.00000000
 21  0.00000000
 22  0.00000000
 23  0.00000000
 24  0.28044333
 25  0.00000000
Sym=X
Ene=0.00000000
Spin=Alpha
Occup=0
 1  0.00000728
 2  -0.00000593
 3  0.00004673
 4  0.00041048
 5  0.00026187
 6  0.00046624
 7  0.00000000
 8  0.00081519
 9  -0.00048191
 10  0.00000000
 11  -0.00067452
 12  -0.00000000
 13  0.00000000
 14  0.00016148
 15  -0.00016148
 16  -0.00016148
 17  -0.00000253
 18  -0.99999985
 19  0.99999985
 20  -0.00359326
 21  0.00377170
 22  -0.00088484
 23  -0.00002361
 24  0.00000000
 25  0.00015011
Sym=X
Ene=0.00000000
Spin=Alpha
Occup=0
 1  0.00000000
 2  0.00000000
 3  0.00000000
 4  0.00000000
 5  0.00000000
 6  0.00000000
 7  -0.00164521
 8  0.00000000
 9  0.00000000
 10  0.00246712
 11  0.00000000
 12  -0.99999849
 13  -0.00043325
 14  0.00000000
 15  -0.00000000
 16  -0.00000000
 17  0.00000000
 18  0.00000000
 19  -0.00000000
 20  0.00000000
 21  0.00000000
 22  0.00000000
 23  0.00000000
 24  0.00033354
 25  0.00000000
Sym=X
Ene=0.00000000
Spin=Alpha
Occup=0
 1  0.02187901
 2  0.01123702
 3  0.14498098
 4  1.82035824
 5  0.63886966
 6  0.16823677
 7  0.00000000
 8  2.45263914
 9  -0.23108628
 10  0.00000000
 11  -1.38691301
 12  0.00000000
 13  0.00000000
 14  0.77015701
 15  -0.77015701
 16  -0.77015701
 17  0.03227558
 18  0.00041216
 19  -0.00041216
 20  -9.96062819
 21  8.25520177
 22  -0.88947863
 23  -0.03234274
 24  0.00000000
 25  0.37036310
Sym=X
Ene=0.00000000
Spin=Alpha
Occup=0
 1  -0.00504508
 2  0.01909542
 3  -0.00561507
 4  0.92018161
 5  -0.26404122
 6  -0.82475689
 7  0.00000000
 8  0.52746611
 9  1.03783365
 10  0.00000000
 11  0.27458086
 12  0.00000000
 13  0.00000000
 14  0.75835924
 15  -0.75835924
 16  -0.75835924
 17  -0.20997489
 18  -0.00030011
 19  0.00030011
 20  0.89572580
 21  -3.46274818
 22  1.64006940
 23  0.26980227
 24  0.00000000
 25  -0.12133891
Sym=X
Ene=0.00000000
Spin=Alpha
Occup=0
 1  -0.00555496
 2  0.13613790
 3  -0.04454540
 4  -0.08278038
 5  0.09547463
 6  -0.56223783
 7  0.00000000
 8  -0.14432932
 9  0.57911602
 10  0.00000000
 11  -0.19445551
 12  0.00000000
 13  0.00000000
 14  -0.76666277
 15  0.76666277
 16  0.76666277
 17  -0.27568923
 18  -0.00007885
 19  0.00007885
 20  -1.08746925
 21  1.14937398
 22  0.50953828
 23  0.38239706
 24  0.00000000
 25  0.41975674
Sym=X
Ene=0.00000000
Spin=Alpha
Occup=0
 1  0.00000000
 2  0.00000000
 3  0.00000000
 4  0.00000000
 5  0.00000000
 6  0.00000000
 7  0.30506666
 8  0.00000000
 9  0.00000000
 10  0.31031268
 11  0.00000000
 12  -0.00007015
 13  0.87952749
 14  0.00000000
 15  -0.00000000
 16  -0.00000000
 17  0.00000000
 18  0.00000000
 19  -0.00000000
 20  0.00000000
 21  0.00000000
 22  0.00000000
 23  0.00000000
 24  -1.27575927
 25  0.00000000
Sym=X
Ene=0.00000000
Spin=Alpha
Occup=0
 1  -0.01293651
 2  0.08896979
 3  -0.06279429
 4  0.17252846
 5  -0.12545480
 6  0.11145726
 7  0.00000000
 8  -0.01705749
 9  0.53770002
 10  0.00000000
 11  0.06050931
 12  0.00000000
 13  0.00000000
 14  -0.08027669
 15  0.08027669
 16  0.08027669
 17  0.82107241
 18  -0.00008958
 19  0.00008958
 20  0.61634979
 21  -1.27379407
 22  0.74846915
 23  -1.19682201
 24  0.00000000
 25  0.10925706
Sym=X
Ene=0.00000000
Spin=Alpha
Occup=0
 1  -0.30927013
 2  1.58118403
 3  -1.34646348
 4  4.75696034
 5  -1.20151407
 6  0.01728237
 7  0.00000000
 8  1.81892746
 9  -0.03151326
 10  0.00000000
 11  0.84693676
 12  0.00000000
 13  0.00000000
 14  1.05901198
 15  -1.05901198
 16  -1.05901198
 17  -0.00844117
 18  0.00000254
 19  -0.00000254
 20  -8.30619146
 21  4.55308807
 22  -0.25004200
 23  0.01274997
 24  0.00000000
 25  1.53465002
Sym=X
Ene=0.00000000
Spin=Alpha
Occup=0
 1  -0.70839372
 2  2.93389743
 3  -3.18860515
 4  -1.07125979
 5  -0.24905791
 6  0.05599637
 7  0.00000000
 8  -0.82037152
 9  -0.08464003
 10  0.00000000
 11  -0.63244560
 12  0.00000000
 13  0.00000000
 14  -0.51637634
 15  0.51637634
 16  0.51637634
 17  -0.00809218
 18  0.00000328
 19  -0.00000328
 20  4.04955371
 21  -1.95951725
 22  0.00269050
 23  0.01334556
 24  0.00000000
 25  -1.11430115
Sym=X
Ene=0.00000000
Spin=Alpha
Occup=0
 1  0.00000000
 2  0.00000000
 3  0.00000000
 4  0.00000000
 5  0.00000000
 6  0.00000000
 7  0.00000000
 8  0.00000000
 9  0.00000000
 10  0.00000000
 11  0.00000000
 12  0.00000000
 13  0.00000000
 14  0.00000000
 15  -0.00000000
 16  -0.00000000
 17  0.00000000
 18  0.00000000
 19  -0.00000000
 20  0.00000000
 21  0.00000000
 22  0.00000000
 23  0.00000000
 24  0.00000000
 25  0.00000000
Sym=X
Ene=0.00000000
Spin=Alpha
Occup=0
 1  0.00000000
 2  0.00000000
 3  0.00000000
 4  0.00000000
 5  0.00000000
 6  0.00000000
 7  0.00000000
 8  0.00000000
 9  0.00000000
 10  0.00000000
 11  0.00000000
 12  0.00000000
 13  0.00000000
 14  0.00000000
 15  -0.00000000
 16  -0.00000000
 17  0.00000000
 18  0.00000000
 19  -0.00000000
 20  0.00000000
 21  0.00000000
 22  0.00000000
 23  0.00000000
 24  0.00000000
 25  0.00000000
