[Molden Format]
[Atoms] (Angs)
 C     1   6   0.00000000   0.00000000   0.00000000
 H     2   1   0.00000000   0.00000000   1.10660000
 H     3   1   0.00000000   1.08090000   -0.23720000
[STO]
1 0 0 0 0 4.06408103 12.00789533 
1 0 0 0 0 2.64588609 6.30783131 
1 0 0 0 1 0.67734684 0.60379479 
1 0 0 0 1 1.11127216 2.08167379 
1 0 0 0 1 2.43421520 14.78287877 
1 1 0 0 0 0.43392532 0.34352606 
1 0 1 0 0 0.43392532 0.34352606 
1 0 0 1 0 0.43392532 0.34352606 
1 1 0 0 0 0.78318228 1.50341664 
1 0 1 0 0 0.78318228 1.50341664 
1 0 0 1 0 0.78318228 1.50341664 
1 1 0 0 0 1.55578102 8.36167705 
1 0 1 0 0 1.55578102 8.36167705 
1 0 0 1 0 1.55578102 8.36167705 
1 1 1 0 0 1.16418988 7.27543252 
1 0 1 1 0 1.16418988 7.27543252 
1 0 0 2 0 1.16418988 4.20047292 
1 2 0 0 0 1.16418988 2.10023646 
1 0 2 0 0 1.16418988 2.10023646 
1 1 0 1 0 1.16418988 7.27543252 
1 2 0 0 0 1.16418988 3.63771626 
1 0 2 0 0 1.16418988 3.63771626 
2 0 0 0 0 0.36513228 0.32336924 
2 0 0 0 0 0.48684304 0.49785951 
2 0 0 0 0 0.83610000 1.12049699 
2 1 0 0 0 0.66147152 0.98559864 
2 0 1 0 0 0.66147152 0.98559864 
2 0 0 1 0 0.66147152 0.98559864 
3 0 0 0 0 0.36513228 0.32336924 
3 0 0 0 0 0.48684304 0.49785951 
3 0 0 0 0 0.83610000 1.12049699 
3 1 0 0 0 0.66147152 0.98559864 
3 0 1 0 0 0.66147152 0.98559864 
3 0 0 1 0 0.66147152 0.98559864 
[MO]
Sym=X
Ene=0.00000000
Spin=Alpha
Occup=1
 1  0.23989591
 2  0.77975288
 3  0.01994269
 4  -0.02365274
 5  -0.00271123
 6  0.00027871
 7  0.00505553
 8  0.00360895
 9  -0.00006515
 10  -0.00586261
 11  -0.00322416
 12  0.00000912
 13  0.00468862
 14  0.00250550
 15  0.00061887
 16  0.00058239
 17  0.00044394
 18  -0.00044394
 19  -0.00044394
 20  -0.00000689
 21  -0.00029865
 22  0.00029865
 23  -0.00832371
 24  0.00418621
 25  0.00096270
 26  -0.00005800
 27  -0.00015387
 28  -0.00095114
 29  -0.00342842
 30  -0.00279717
 31  0.00418627
 32  -0.00027871
 33  -0.00098612
 34  -0.00007811
Sym=X
Ene=0.00000000
Spin=Alpha
Occup=1
 1  -0.02292663
 2  -0.18889107
 3  0.20766199
 4  0.47256799
 5  -0.04332391
 6  0.00180055
 7  -0.01913407
 8  -0.01040853
 9  -0.00002675
 10  0.10209199
 11  0.07721755
 12  0.00036270
 13  0.04092995
 14  0.02885710
 15  0.00318277
 16  0.00062894
 17  0.01045077
 18  -0.01045077
 19  -0.01045077
 20  0.00001367
 21  -0.01933927
 22  0.01933927
 23  -0.16006105
 24  0.31894332
 25  0.10455168
 26  -0.00027946
 27  0.00285104
 28  -0.04297947
 29  -0.07416549
 30  0.21690445
 31  0.13383004
 32  -0.00100604
 33  -0.03847539
 34  0.01075254
Sym=X
Ene=0.00000000
Spin=Alpha
Occup=1
 1  -0.02756425
 2  0.06007156
 3  -0.14419343
 4  0.11863787
 5  -0.07741062
 6  -0.00349319
 7  -0.05159257
 8  0.01408292
 9  0.00123792
 10  0.26400006
 11  -0.32631521
 12  -0.00056288
 13  0.07785293
 14  -0.11564336
 15  -0.00599558
 16  0.00125591
 17  -0.03302363
 18  0.03302363
 19  0.03302363
 20  -0.00018864
 21  -0.01374433
 22  0.01374433
 23  0.35083877
 24  -0.79749731
 25  -0.01479516
 26  0.00032038
 27  0.00300654
 28  0.05805946
 29  -0.18475276
 30  0.70614590
 31  0.01743914
 32  0.00084971
 33  -0.07263665
 34  0.00451257
Sym=X
Ene=0.00000000
Spin=Alpha
Occup=1
 1  -0.03187947
 2  0.18038373
 3  -0.74772824
 4  -0.01884861
 5  -0.10924100
 6  -0.00891652
 7  0.08143598
 8  0.07083569
 9  -0.00288086
 10  0.39115719
 11  0.28911909
 12  -0.00253011
 13  0.10417309
 14  0.09614907
 15  -0.00919714
 16  0.00859943
 17  0.00267279
 18  -0.00267279
 19  -0.00267279
 20  -0.00006699
 21  -0.02024819
 22  0.02024819
 23  -0.04819622
 24  0.35185963
 25  -0.00040404
 26  0.00061699
 27  0.03275933
 28  -0.03039189
 29  -0.08352087
 30  0.41867568
 31  -0.01737708
 32  0.00048165
 33  -0.02092348
 34  0.03737166
Sym=X
Ene=0.00000000
Spin=Alpha
Occup=0
 1  0.00877455
 2  -0.02105748
 3  0.07195478
 4  -0.03913781
 5  0.02547503
 6  -0.75710723
 7  0.00763278
 8  0.00472566
 9  -0.13944778
 10  -0.00697431
 11  -0.00053246
 12  -0.15779552
 13  0.00215798
 14  -0.00128118
 15  -0.01378862
 16  0.00156365
 17  0.00084761
 18  -0.00084761
 19  -0.00084761
 20  -0.01309000
 21  0.00018097
 22  -0.00018097
 23  -0.04054900
 24  0.01641596
 25  -0.00004633
 26  -0.03761076
 27  -0.00064961
 28  0.00318037
 29  -0.04316582
 30  0.01550089
 31  0.00207404
 32  -0.03684806
 33  0.00195886
 34  -0.00087317
Sym=X
Ene=0.00000000
Spin=Alpha
Occup=0
 1  -0.01796962
 2  -0.01290271
 3  0.69040239
 4  0.06127734
 5  -0.02594438
 6  0.00211653
 7  0.20970644
 8  -0.19280142
 9  0.00830550
 10  0.00861305
 11  0.14486173
 12  0.00116627
 13  0.03227273
 14  -0.01006518
 15  -0.00898728
 16  0.01203883
 17  0.00592802
 18  -0.00592802
 19  -0.00592802
 20  0.00017160
 21  0.01241687
 22  -0.01241687
 23  -0.79202815
 24  0.79861331
 25  -0.12904499
 26  0.00171032
 27  0.00583279
 28  -0.01066487
 29  -4.61270319
 30  4.24349817
 31  -0.66984932
 32  0.00079840
 33  -0.02389201
 34  0.01132205
Sym=X
Ene=0.00000000
Spin=Alpha
Occup=0
 1  0.01398177
 2  -0.00918683
 3  -0.31845903
 4  -0.06385403
 5  0.02759942
 6  0.00478782
 7  0.08315509
 8  -0.41609783
 9  -0.00622405
 10  0.30792963
 11  -0.43874923
 12  0.00022096
 13  -0.00553952
 14  0.00661628
 15  0.00424086
 16  -0.12333921
 17  -0.08189539
 18  0.08189539
 19  0.08189539
 20  -0.00012657
 21  -0.07673794
 22  0.07673794
 23  4.79545243
 24  -2.79681906
 25  -0.02213569
 26  -0.00083912
 27  0.06028784
 28  -0.10496351
 29  -4.50755022
 30  3.29022337
 31  -0.24525182
 32  -0.00024989
 33  0.12941744
 34  -0.02339771
Sym=X
Ene=0.00000000
Spin=Alpha
Occup=0
 1  0.01287349
 2  -0.04219193
 3  1.37830535
 4  -0.20082644
 5  0.07380330
 6  -0.01385692
 7  0.07108177
 8  2.62565946
 9  0.01368833
 10  -0.29789526
 11  -1.11175875
 12  -0.00084350
 13  -0.03564041
 14  0.13031522
 15  -0.00411240
 16  -0.00737308
 17  0.01555984
 18  -0.01555984
 19  -0.01555984
 20  0.00007336
 21  -0.01686844
 22  0.01686844
 23  -1.75635205
 24  -1.00425780
 25  0.55923871
 26  0.00136970
 27  -0.04835871
 28  0.12131032
 29  1.98402769
 30  -1.48293847
 31  0.18434824
 32  0.00029552
 33  0.06700672
 34  -0.06776080
Sym=X
Ene=0.00000000
Spin=Alpha
Occup=0
 1  0.00205492
 2  -0.01432891
 3  1.11702033
 4  -0.13428102
 5  0.03747135
 6  -0.02296820
 7  2.54580456
 8  -0.76230109
 9  0.02294375
 10  -1.05642162
 11  -0.06290889
 12  -0.00143045
 13  0.10738236
 14  -0.05887865
 15  -0.00575064
 16  -0.03536449
 17  -0.01217711
 18  0.01217711
 19  0.01217711
 20  -0.00006421
 21  -0.03659609
 22  0.03659609
 23  2.27723288
 24  -1.18544679
 25  0.02298922
 26  0.00225409
 27  -0.03790263
 28  0.04883688
 29  -2.15903327
 30  -0.75441164
 31  0.55213026
 32  0.00086540
 33  0.12287422
 34  -0.07246865
Sym=X
Ene=0.00000000
Spin=Alpha
Occup=0
 1  -0.00793658
 2  0.01593235
 3  -0.03151788
 4  0.03881806
 5  -0.02200351
 6  1.74171778
 7  0.02916006
 8  -0.00087139
 9  -1.74326023
 10  -0.01974238
 11  -0.00594697
 12  0.09541228
 13  -0.00115656
 14  0.00040186
 15  -0.01078275
 16  -0.00150112
 17  -0.00008325
 18  0.00008325
 19  0.00008325
 20  -0.00751381
 21  -0.00096476
 22  0.00096476
 23  0.03295574
 24  -0.02197583
 25  0.00322161
 26  -0.14346683
 27  -0.00235974
 28  -0.00147716
 29  -0.03013209
 30  0.02245247
 31  -0.00402845
 32  -0.14363575
 33  -0.00070841
 34  -0.00192564
Sym=X
Ene=0.00000000
Spin=Alpha
Occup=0
 1  -0.02547448
 2  -0.02797386
 3  0.42454027
 4  0.24303443
 5  -0.05516088
 6  0.00740908
 7  -0.30670703
 8  0.28811247
 9  -0.00460463
 10  0.75523781
 11  -0.02436862
 12  0.00004943
 13  0.00314079
 14  0.05668904
 15  -0.00548776
 16  -0.02051015
 17  -0.05592638
 18  0.05592638
 19  0.05592638
 20  0.00002798
 21  0.00169111
 22  -0.00169111
 23  0.89139780
 24  -1.94373048
 25  0.37285358
 26  0.00028815
 27  0.24359931
 28  -0.21308935
 29  3.65266094
 30  -5.17935228
 31  1.05105817
 32  -0.00414148
 33  -0.16710435
 34  0.24632436
Sym=X
Ene=0.00000000
Spin=Alpha
Occup=0
 1  0.00909984
 2  -0.05933733
 3  0.32763385
 4  0.09822854
 5  0.03316151
 6  -0.00846506
 7  -0.06625162
 8  1.22360218
 9  -0.00078858
 10  0.57212316
 11  -0.25287743
 12  -0.00004562
 13  0.02930976
 14  0.00832853
 15  0.01237568
 16  -0.00678385
 17  0.05739014
 18  -0.05739014
 19  -0.05739014
 20  -0.00127071
 21  0.06282827
 22  -0.06282827
 23  -1.65079142
 24  0.19867220
 25  0.34726490
 26  -0.01305099
 27  -0.66926539
 28  0.08693101
 29  3.70831678
 30  -3.89276388
 31  0.66136630
 32  0.02568655
 33  -0.33232819
 34  -0.67262610
Sym=X
Ene=0.00000000
Spin=Alpha
Occup=0
 1  -0.05208586
 2  0.12411240
 3  -0.56341915
 4  0.28673437
 5  -0.15483276
 6  0.01432096
 7  -2.18320189
 8  2.28315628
 9  0.00315772
 10  0.92598242
 11  -1.35252028
 12  -0.00012074
 13  -0.01884765
 14  -0.04899212
 15  -0.02418005
 16  0.23591390
 17  0.21225889
 18  -0.21225889
 19  -0.21225889
 20  0.01010852
 21  0.14560490
 22  -0.14560490
 23  -8.59439512
 24  6.69081435
 25  -0.38082685
 26  0.09117415
 27  0.22259581
 28  0.51620332
 29  7.30628308
 30  -4.41148910
 31  -0.01329766
 32  -0.11668109
 33  -0.38540943
 34  0.09567039
Sym=X
Ene=0.00000000
Spin=Alpha
Occup=0
 1  0.03445650
 2  -0.06660792
 3  0.36134651
 4  -0.22957440
 5  0.10213808
 6  -0.01092935
 7  0.33773899
 8  -0.24953696
 9  -0.00418018
 10  -0.11324991
 11  0.18361979
 12  -0.00032652
 13  0.00917399
 14  0.00533799
 15  -0.06334724
 16  -0.03015365
 17  -0.02842372
 18  0.02842372
 19  0.02842372
 20  0.09090087
 21  -0.01558470
 22  0.01558470
 23  1.05225547
 24  -0.91229481
 25  0.06727860
 26  0.78225113
 27  -0.05796894
 28  -0.05424620
 29  -0.94910617
 30  0.45213846
 31  0.04330906
 32  -0.76054195
 33  0.05643737
 34  -0.04111610
Sym=X
Ene=0.00000000
Spin=Alpha
Occup=0
 1  0.03122451
 2  -0.05150247
 3  0.37471229
 4  -0.25223280
 5  0.09399481
 6  0.77350682
 7  0.09300885
 8  0.00985664
 9  0.30593148
 10  -0.00883305
 11  0.03038248
 12  0.02212890
 13  0.00513559
 14  -0.00062999
 15  -0.11228894
 16  -0.00272225
 17  -0.00586086
 18  0.00586086
 19  0.00586086
 20  -0.09235860
 21  0.00302631
 22  -0.00302631
 23  0.04096386
 24  -0.12974215
 25  0.01899449
 26  -0.84812322
 27  -0.02272402
 28  0.00900321
 29  -0.17051361
 30  -0.00728163
 31  0.03124047
 32  -0.86615616
 33  0.01925345
 34  -0.02056362
Sym=X
Ene=0.00000000
Spin=Alpha
Occup=0
 1  0.02601043
 2  0.00874827
 3  0.79134585
 4  -0.56901084
 5  0.09287463
 6  -0.01330290
 7  -0.90326914
 8  1.33304799
 9  -0.00241896
 10  0.23733807
 11  -0.25306720
 12  -0.00181289
 13  -0.09087366
 14  0.09141196
 15  -0.01581628
 16  -0.05799552
 17  0.01777737
 18  -0.01777737
 19  -0.01777737
 20  -0.00009920
 21  0.03794141
 22  -0.03794141
 23  -0.86188601
 24  -0.25651493
 25  0.26309315
 26  0.00472133
 27  1.10704065
 28  -0.09701926
 29  0.37665086
 30  0.36253321
 31  -0.33656795
 32  0.02378500
 33  -0.13709280
 34  -1.08985765
Sym=X
Ene=0.00000000
Spin=Alpha
Occup=0
 1  0.01269316
 2  0.35801406
 3  3.90672082
 4  -2.64333966
 5  0.15124483
 6  -0.11599636
 7  0.44179811
 8  0.43917984
 9  -0.01051468
 10  0.38189724
 11  -0.02358789
 12  -0.01873599
 13  -0.20552307
 14  -0.04035703
 15  -0.16025153
 16  -0.07417064
 17  -0.08788321
 18  0.08788321
 19  0.08788321
 20  -0.00347207
 21  0.23174952
 22  -0.23174952
 23  -1.76840691
 24  0.55674802
 25  0.01047623
 26  0.03771827
 27  -0.27959580
 28  0.15021615
 29  -1.18964124
 30  0.58245674
 31  -0.38775250
 32  0.19900577
 33  0.04177374
 34  0.15811089
Sym=X
Ene=0.00000000
Spin=Alpha
Occup=0
 1  -0.07534859
 2  0.12839144
 3  1.34990018
 4  0.72418843
 5  -0.16647351
 6  -0.01104004
 7  -0.50505491
 8  0.14444405
 9  0.00052712
 10  0.28345862
 11  1.21771619
 12  -0.00248394
 13  0.00172367
 14  -0.17815223
 15  -0.01813380
 16  0.17478068
 17  -0.33406673
 18  0.33406673
 19  0.33406673
 20  -0.00061731
 21  0.22279546
 22  -0.22279546
 23  -3.04769686
 24  1.39745028
 25  -0.50905622
 26  0.00327801
 27  0.04636513
 28  1.63651385
 29  1.75022928
 30  -1.19980208
 31  0.01646450
 32  0.01715077
 33  0.04354504
 34  -0.20907138
Sym=X
Ene=0.00000000
Spin=Alpha
Occup=0
 1  0.03915324
 2  -0.00398053
 3  -0.53216866
 4  -0.77751542
 5  0.09317139
 6  -0.01488731
 7  -0.14031238
 8  0.94221814
 9  0.00303456
 10  -1.28853238
 11  0.46835721
 12  -0.00377031
 13  0.16867884
 14  -0.17259330
 15  -0.02387043
 16  0.20394928
 17  0.02313934
 18  -0.02313934
 19  -0.02313934
 20  -0.00162460
 21  -0.25655958
 22  0.25655958
 23  -2.73254956
 24  0.42403828
 25  0.54798547
 26  0.00425592
 27  -0.01065689
 28  0.62380675
 29  3.87329321
 30  -1.59587366
 31  0.49263328
 32  0.02103224
 33  -1.85819749
 34  0.15430028
Sym=X
Ene=0.00000000
Spin=Alpha
Occup=0
 1  0.06123226
 2  -0.14249174
 3  0.89684781
 4  -0.22266980
 5  0.18774796
 6  -0.74793612
 7  0.35105642
 8  0.06266599
 9  0.34418029
 10  -0.04696273
 11  -0.09756486
 12  -0.31641924
 13  0.17640074
 14  0.11689079
 15  -0.63138425
 16  0.12390569
 17  0.06338889
 18  -0.06338889
 19  -0.06338889
 20  -0.82253473
 21  -0.23331812
 22  0.23331812
 23  0.18361049
 24  -0.21678603
 25  -0.08567818
 26  0.64796654
 27  -0.06367367
 28  0.03378171
 29  -0.13545532
 30  -0.86035471
 31  0.31264505
 32  0.40186089
 33  0.30165340
 34  -0.15529292
Sym=X
Ene=0.00000000
Spin=Alpha
Occup=0
 1  0.04403242
 2  -0.07948692
 3  1.32804019
 4  -0.34202595
 5  0.15448019
 6  -0.04825007
 7  0.47056632
 8  0.14931965
 9  0.02451770
 10  -0.03346869
 11  -0.16910972
 12  -0.02205920
 13  0.23786495
 14  0.19893247
 15  -0.69249341
 16  0.19553251
 17  0.10184220
 18  -0.10184220
 19  -0.10184220
 20  0.75834535
 21  -0.36151567
 22  0.36151567
 23  -0.02170998
 24  -0.00945308
 25  -0.24588016
 26  -0.47214271
 27  -0.11421692
 28  0.07211336
 29  -0.34007551
 30  -0.80569476
 31  0.19320810
 32  0.53752178
 33  0.38621439
 34  -0.21868631
Sym=X
Ene=0.00000000
Spin=Alpha
Occup=0
 1  -0.13164326
 2  0.36655794
 3  0.57994174
 4  -0.17254900
 5  -0.33232599
 6  0.24006432
 7  0.15368099
 8  0.37642467
 9  -0.15635736
 10  0.02298831
 11  -0.34836691
 12  0.13396615
 13  0.20343260
 14  0.39506627
 15  0.49960970
 16  0.32323021
 17  0.22487600
 18  -0.22487600
 19  -0.22487600
 20  -0.13410350
 21  -0.55094076
 22  0.55094076
 23  -1.67639092
 24  2.40746802
 25  -1.33432327
 26  0.05151082
 27  -0.24507353
 28  0.09277065
 29  -1.56380477
 30  2.86885211
 31  -1.76181179
 32  -0.34574818
 33  -0.02316355
 34  -0.17787452
Sym=X
Ene=0.00000000
Spin=Alpha
Occup=0
 1  -0.05364683
 2  0.39434223
 3  6.58105600
 4  -1.22239937
 5  0.04367644
 6  0.08999602
 7  0.59242359
 8  1.28688940
 9  -0.10347769
 10  0.24711103
 11  -0.12281332
 12  0.08457550
 13  0.27083992
 14  0.59739736
 15  0.13299702
 16  -0.45590810
 17  0.41473647
 18  -0.41473647
 19  -0.41473647
 20  -0.02214729
 21  -0.22182061
 22  0.22182061
 23  1.54793987
 24  -8.30363248
 25  3.53712662
 26  0.00873370
 27  0.18074953
 28  1.70447600
 29  2.30675342
 30  -6.38110198
 31  2.31398665
 32  -0.08166403
 33  1.04106647
 34  0.07617720
Sym=X
Ene=0.00000000
Spin=Alpha
Occup=0
 1  0.19005801
 2  -0.65420086
 3  -2.87248400
 4  0.53452220
 5  0.42203280
 6  -0.14445773
 7  -1.66526711
 8  0.67198334
 9  0.19635260
 10  -0.62863220
 11  0.19874284
 12  -0.15931535
 13  -0.03333855
 14  0.23205748
 15  -0.18787961
 16  -0.51172100
 17  0.65197650
 18  -0.65197650
 19  -0.65197650
 20  0.03288032
 21  0.40731793
 22  -0.40731793
 23  -2.48165965
 24  1.03244066
 25  -0.22930621
 26  -0.01704662
 27  0.24110499
 28  0.81631842
 29  -0.28665450
 30  7.33946847
 31  -3.40691971
 32  0.11013182
 33  -1.63428546
 34  0.78208656
Sym=X
Ene=0.00000000
Spin=Alpha
Occup=0
 1  0.01699178
 2  -0.05335869
 3  -0.00092392
 4  0.01440031
 5  0.04480787
 6  -0.21695017
 7  0.70905920
 8  -1.02625127
 9  0.73790090
 10  -1.16291253
 11  1.26377593
 12  -0.59459688
 13  0.79244162
 14  -0.77718104
 15  0.06661442
 16  -0.39508434
 17  -0.44958743
 18  0.44958743
 19  0.44958743
 20  0.06123237
 21  -0.32541598
 22  0.32541598
 23  4.83288498
 24  -5.92716237
 25  2.03096320
 26  -0.10356999
 27  0.17708456
 28  0.12233345
 29  -5.33703905
 30  6.81317382
 31  -2.49304656
 32  -0.09837687
 33  -0.04380918
 34  0.09416964
Sym=X
Ene=0.00000000
Spin=Alpha
Occup=0
 1  -0.04886531
 2  0.15158931
 3  0.41582131
 4  -0.05207968
 5  -0.11775110
 6  -0.59719807
 7  -0.12505517
 8  0.36739702
 9  2.11396061
 10  0.49944227
 11  -0.48492666
 12  -1.70377393
 13  -0.28599746
 14  0.29220672
 15  0.24833184
 16  0.16359133
 17  0.11839241
 18  -0.11839241
 19  -0.11839241
 20  0.17171809
 21  0.06424487
 22  -0.06424487
 23  -1.49856100
 24  1.76852842
 25  -0.59092357
 26  -0.30030511
 27  -0.08159044
 28  -0.04288073
 29  1.90891938
 30  -2.99473584
 31  1.10701303
 32  -0.31879481
 33  0.16566169
 34  -0.08673728
Sym=X
Ene=0.00000000
Spin=Alpha
Occup=0
 1  0.27251587
 2  -0.68496546
 3  1.05534041
 4  -0.58421779
 5  0.75295971
 6  -0.01948682
 7  -0.11993392
 8  0.45192039
 9  -0.00928591
 10  2.56165034
 11  -2.25342353
 12  0.00850406
 13  -1.44534111
 14  1.13119625
 15  -0.05368703
 16  0.16061145
 17  -0.82265341
 18  0.82265341
 19  0.82265341
 20  0.00055861
 21  -0.47996328
 22  0.47996328
 23  1.46705893
 24  -1.21648839
 25  1.35078346
 26  0.00590481
 27  -0.35301951
 28  -0.69056077
 29  -0.15315696
 30  -2.05469534
 31  -0.04668613
 32  0.03206570
 33  0.91293526
 34  -0.25196175
Sym=X
Ene=0.00000000
Spin=Alpha
Occup=0
 1  -0.21048750
 2  0.21848991
 3  -10.98637557
 4  2.27376847
 5  -0.86509122
 6  0.00130528
 7  -0.57616435
 8  -0.46211580
 9  0.00053000
 10  -3.09449707
 11  -3.33433202
 12  -0.00043260
 13  1.50912783
 14  1.60780204
 15  0.00353719
 16  0.23547715
 17  -0.74764031
 18  0.74764031
 19  0.74764031
 20  0.00002827
 21  0.81067690
 22  -0.81067690
 23  -2.35481410
 24  10.61494219
 25  -3.08045705
 26  -0.00040482
 27  0.11350132
 28  -2.41990814
 29  -2.00065195
 30  8.97614810
 31  -2.72865185
 32  -0.00207778
 33  -1.86383383
 34  0.55751464
Sym=X
Ene=0.00000000
Spin=Alpha
Occup=0
 1  0.00000000
 2  0.00000000
 3  0.00000000
 4  0.00000000
 5  0.00000000
 6  0.00000000
 7  0.00000000
 8  0.00000000
 9  0.00000000
 10  0.00000000
 11  0.00000000
 12  0.00000000
 13  0.00000000
 14  0.00000000
 15  0.00000000
 16  0.00000000
 17  0.00000000
 18  -0.00000000
 19  -0.00000000
 20  0.00000000
 21  0.00000000
 22  -0.00000000
 23  0.00000000
 24  0.00000000
 25  0.00000000
 26  0.00000000
 27  0.00000000
 28  0.00000000
 29  0.00000000
 30  0.00000000
 31  0.00000000
 32  0.00000000
 33  0.00000000
 34  0.00000000
Sym=X
Ene=0.00000000
Spin=Alpha
Occup=0
 1  0.00000000
 2  0.00000000
 3  0.00000000
 4  0.00000000
 5  0.00000000
 6  0.00000000
 7  0.00000000
 8  0.00000000
 9  0.00000000
 10  0.00000000
 11  0.00000000
 12  0.00000000
 13  0.00000000
 14  0.00000000
 15  0.00000000
 16  0.00000000
 17  0.00000000
 18  -0.00000000
 19  -0.00000000
 20  0.00000000
 21  0.00000000
 22  -0.00000000
 23  0.00000000
 24  0.00000000
 25  0.00000000
 26  0.00000000
 27  0.00000000
 28  0.00000000
 29  0.00000000
 30  0.00000000
 31  0.00000000
 32  0.00000000
 33  0.00000000
 34  0.00000000
Sym=X
Ene=0.00000000
Spin=Alpha
Occup=0
 1  0.00000000
 2  0.00000000
 3  0.00000000
 4  0.00000000
 5  0.00000000
 6  0.00000000
 7  0.00000000
 8  0.00000000
 9  0.00000000
 10  0.00000000
 11  0.00000000
 12  0.00000000
 13  0.00000000
 14  0.00000000
 15  0.00000000
 16  0.00000000
 17  0.00000000
 18  -0.00000000
 19  -0.00000000
 20  0.00000000
 21  0.00000000
 22  -0.00000000
 23  0.00000000
 24  0.00000000
 25  0.00000000
 26  0.00000000
 27  0.00000000
 28  0.00000000
 29  0.00000000
 30  0.00000000
 31  0.00000000
 32  0.00000000
 33  0.00000000
 34  0.00000000
