[Molden Format]
[Atoms] (Angs)
 N     1   7   0.00000000   0.00000000   0.00000000
 O     2   8   0.00000000   0.00000000   1.15000000
[STO]
1 0 0 0 0 4.62500888 14.57780755 
1 0 0 0 0 3.12214559 8.08542925 
1 0 0 0 1 2.72526267 19.60570704 
1 0 0 0 1 1.32294304 3.21895168 
1 0 0 0 1 0.79376583 0.89762013 
1 1 0 0 0 1.94737216 14.65698388 
1 0 1 0 0 1.94737216 14.65698388 
1 0 0 1 0 1.94737216 14.65698388 
1 1 0 0 0 0.99485317 2.73413332 
1 0 1 0 0 0.99485317 2.73413332 
1 0 0 1 0 0.99485317 2.73413332 
1 1 0 0 0 0.52917722 0.56418958 
1 0 1 0 0 0.52917722 0.56418958 
1 0 0 1 0 0.52917722 0.56418958 
1 1 1 0 0 1.16418988 7.27543252 
1 0 1 1 0 1.16418988 7.27543252 
1 0 0 2 0 1.16418988 4.20047292 
1 2 0 0 0 1.16418988 2.10023646 
1 0 2 0 0 1.16418988 2.10023646 
1 1 0 1 0 1.16418988 7.27543252 
1 2 0 0 0 1.16418988 3.63771626 
1 0 2 0 0 1.16418988 3.63771626 
2 0 0 0 0 5.18593673 17.30868910 
2 0 0 0 0 3.59840508 10.00433976 
2 0 0 0 1 4.01116331 51.52730760 
2 0 0 0 1 1.52403039 4.58506668 
2 0 0 0 1 0.91018481 1.26382096 
2 1 0 0 0 2.15904305 18.97035558 
2 0 1 0 0 2.15904305 18.97035558 
2 0 0 1 0 2.15904305 18.97035558 
2 1 0 0 0 1.10068861 3.52033020 
2 0 1 0 0 1.10068861 3.52033020 
2 0 0 1 0 1.10068861 3.52033020 
2 1 0 0 0 0.59267848 0.74897983 
2 0 1 0 0 0.59267848 0.74897983 
2 0 0 1 0 0.59267848 0.74897983 
2 1 1 0 0 1.05835444 5.21176013 
2 0 1 1 0 1.05835444 5.21176013 
2 0 0 2 0 1.05835444 3.00901111 
2 2 0 0 0 1.05835444 1.50450556 
2 0 2 0 0 1.05835444 1.50450556 
2 1 0 1 0 1.05835444 5.21176013 
2 2 0 0 0 1.05835444 2.60588006 
2 0 2 0 0 1.05835444 2.60588006 
[MO]
Sym=X
Ene=0.00000000
Spin=Alpha
Occup=1
 1  -0.00082581
 2  0.00178016
 3  -0.00279313
 4  0.00486286
 5  -0.01100101
 6  -0.00003097
 7  -0.00001283
 8  0.00049513
 9  0.00007881
 10  0.00003378
 11  -0.00040357
 12  -0.00005185
 13  -0.00002532
 14  -0.00321237
 15  0.00000025
 16  0.00001313
 17  0.00004600
 18  -0.00004600
 19  -0.00004600
 20  0.00005698
 21  -0.00000010
 22  0.00000010
 23  0.28108787
 24  0.73125613
 25  0.00134744
 26  -0.01591069
 27  0.01760045
 28  0.00021467
 29  0.00015227
 30  -0.00236744
 31  -0.00028958
 32  -0.00016059
 33  0.00230443
 34  0.00013955
 35  0.00007205
 36  -0.00572273
 37  -0.00000167
 38  0.00000596
 39  0.00138257
 40  -0.00138257
 41  -0.00138257
 42  0.00002658
 43  0.00000053
 44  -0.00000053
Sym=X
Ene=0.00000000
Spin=Alpha
Occup=1
 1  -0.25763985
 2  -0.76436655
 3  0.01199957
 4  0.00935446
 5  -0.01574392
 6  -0.00006741
 7  -0.00003124
 8  -0.00331135
 9  0.00016834
 10  0.00007359
 11  0.00240026
 12  -0.00010934
 13  -0.00005268
 14  -0.00605352
 15  -0.00000120
 16  0.00002937
 17  -0.00073237
 18  0.00073237
 19  0.00073237
 20  0.00012642
 21  0.00000045
 22  -0.00000045
 23  0.14403351
 24  -0.24338767
 25  0.12330760
 26  -0.01968819
 27  0.02072945
 28  0.00044698
 29  0.00031668
 30  0.00055858
 31  -0.00061116
 32  -0.00033443
 33  0.00133727
 34  0.00029559
 35  0.00014983
 36  -0.00510764
 37  0.00000001
 38  0.00001568
 39  0.00055967
 40  -0.00055967
 41  -0.00055967
 42  0.00005985
 43  0.00000001
 44  -0.00000001
Sym=X
Ene=0.00000000
Spin=Alpha
Occup=1
 1  -0.02398990
 2  -0.11528514
 3  -0.06203106
 4  0.39099261
 5  0.00070578
 6  -0.00009519
 7  -0.00002560
 8  0.06071959
 9  0.00035685
 10  0.00011256
 11  0.18403000
 12  -0.00029333
 13  -0.00003651
 14  -0.03714170
 15  0.00001206
 16  0.00006686
 17  0.04382841
 18  -0.04382841
 19  -0.04382841
 20  0.00034246
 21  -0.00000529
 22  0.00000529
 23  -0.00224235
 24  -0.21068303
 25  -0.01911685
 26  0.46348792
 27  0.27195598
 28  0.00106166
 29  0.00080221
 30  -0.05568036
 31  -0.00119518
 32  -0.00023587
 33  -0.17140323
 34  0.00077725
 35  0.00016056
 36  -0.02440243
 37  -0.00000624
 38  0.00000999
 39  0.04724539
 40  -0.04724539
 41  -0.04724539
 42  0.00010458
 43  0.00000260
 44  -0.00000260
Sym=X
Ene=0.00000000
Spin=Alpha
Occup=1
 1  0.02579087
 2  0.14745332
 3  0.06327176
 4  -0.51154915
 5  -0.25763631
 6  0.00001860
 7  -0.00001770
 8  0.01150415
 9  -0.00022404
 10  -0.00020565
 11  0.05934644
 12  0.00011320
 13  -0.00000774
 14  -0.00731343
 15  -0.00000816
 16  -0.00004992
 17  -0.00544409
 18  0.00544409
 19  0.00544409
 20  -0.00014782
 21  0.00000211
 22  -0.00000211
 23  -0.11458140
 24  0.03009346
 25  -0.11080708
 26  0.41212278
 27  0.36787382
 28  -0.00043487
 29  -0.00037781
 30  0.10689066
 31  0.00027560
 32  -0.00018350
 33  0.31968626
 34  -0.00032838
 35  -0.00006436
 36  0.01383808
 37  -0.00001322
 38  -0.00002600
 39  -0.02998265
 40  0.02998265
 41  0.02998265
 42  -0.00004676
 43  0.00000597
 44  -0.00000597
Sym=X
Ene=0.00000000
Spin=Alpha
Occup=1
 1  0.01266249
 2  0.09342360
 3  0.02621982
 4  -0.30640707
 5  -0.32973874
 6  0.00016532
 7  0.00021468
 8  0.13059130
 9  0.00098182
 10  0.00108850
 11  0.49279793
 12  -0.00009241
 13  -0.00002226
 14  0.01104138
 15  -0.00000359
 16  0.00021813
 17  0.04713662
 18  -0.04713662
 19  -0.04713662
 20  0.00023660
 21  -0.00000189
 22  0.00000189
 23  0.02093079
 24  -0.00426607
 25  0.01828648
 26  -0.08186793
 27  -0.14112224
 28  0.00068890
 29  0.00076641
 30  -0.13307002
 31  0.00119486
 32  0.00189985
 33  -0.39489879
 34  0.00050045
 35  0.00039675
 36  -0.04760749
 37  -0.00000464
 38  -0.00017896
 39  0.03943811
 40  -0.03943811
 41  -0.03943811
 42  -0.00012518
 43  0.00000177
 44  -0.00000177
Sym=X
Ene=0.00000000
Spin=Alpha
Occup=1
 1  0.00001195
 2  -0.00004627
 3  0.00004719
 4  -0.00004205
 5  0.00047913
 6  0.06797651
 7  -0.04804417
 8  -0.00004690
 9  0.32642458
 10  -0.23071415
 11  -0.00006208
 12  0.00605040
 13  -0.00427100
 14  0.00015006
 15  0.00001093
 16  -0.03298190
 17  0.00002087
 18  -0.00002087
 19  -0.00002087
 20  0.04665966
 21  0.00002190
 22  -0.00002190
 23  -0.00162425
 24  0.00276250
 25  -0.00144468
 26  0.00038812
 27  -0.00054637
 28  0.12998304
 29  -0.09188357
 30  0.00000563
 31  0.42716238
 32  -0.30187556
 33  0.00009528
 34  0.09743473
 35  -0.06887599
 36  0.00018542
 37  -0.00000654
 38  0.03743592
 39  -0.00005119
 40  0.00005119
 41  0.00005119
 42  -0.05296837
 43  -0.00002087
 44  0.00002087
Sym=X
Ene=0.00000000
Spin=Alpha
Occup=1
 1  0.00119181
 2  -0.00199529
 3  0.00427999
 4  -0.00877588
 5  0.03246373
 6  0.04828953
 7  0.06822830
 8  -0.00213995
 9  0.23106009
 10  0.32739048
 11  0.00104274
 12  0.00483606
 13  0.00628239
 14  0.01180744
 15  0.00002191
 16  0.04665654
 17  0.00207774
 18  -0.00207774
 19  -0.00207774
 20  0.03265111
 21  -0.00001093
 22  0.00001093
 23  -0.13352096
 24  0.22718763
 25  -0.11877254
 26  0.03176177
 27  -0.04464166
 28  0.09067720
 29  0.12900626
 30  -0.00105076
 31  0.30293032
 32  0.42685657
 33  0.00278213
 34  0.06785960
 35  0.09733861
 36  0.01418866
 37  -0.00002080
 38  -0.05304458
 39  -0.00378675
 40  0.00378675
 41  0.00378675
 42  -0.03756901
 43  0.00000653
 44  -0.00000653
Sym=X
Ene=0.00000000
Spin=Alpha
Occup=0
 1  -0.00003835
 2  0.00005362
 3  -0.00013956
 4  0.00031471
 5  -0.00108202
 6  0.11454135
 7  -0.08661350
 8  0.00002623
 9  0.36660520
 10  -0.27720233
 11  -0.00006708
 12  0.38478532
 13  -0.29096135
 14  -0.00055552
 15  0.00001747
 16  0.00878766
 17  -0.00007349
 18  0.00007349
 19  0.00007349
 20  -0.01160883
 21  0.00003595
 22  -0.00003595
 23  0.00381176
 24  -0.00648789
 25  0.00340340
 26  -0.00097271
 27  0.00157148
 28  -0.11688712
 29  0.08844071
 30  0.00004673
 31  -0.25960649
 32  0.19628128
 33  0.00001968
 34  -0.31768822
 35  0.24029732
 36  -0.00052834
 37  0.00000712
 38  0.01154842
 39  0.00010923
 40  -0.00010923
 41  -0.00010923
 42  -0.01526869
 43  0.00002178
 44  -0.00002178
Sym=X
Ene=0.00000000
Spin=Alpha
Occup=0
 1  -0.00111472
 2  0.00161767
 3  -0.00408037
 4  0.00915746
 5  -0.03234459
 6  0.08649004
 7  0.11444455
 8  0.00124556
 9  0.27724010
 10  0.36617832
 11  -0.00115496
 12  0.29043381
 13  0.38470359
 14  -0.01484522
 15  0.00003597
 16  -0.01169477
 17  -0.00233023
 18  0.00233023
 19  0.00233023
 20  -0.00857430
 21  -0.00001747
 22  0.00001747
 23  0.11214177
 24  -0.19089147
 25  0.10018371
 26  -0.02876101
 27  0.04531833
 28  -0.08770087
 29  -0.11654833
 30  0.00117786
 31  -0.19819696
 32  -0.26033696
 33  0.00038357
 34  -0.23971538
 35  -0.31866656
 36  -0.01595618
 37  0.00002180
 38  -0.01515049
 39  0.00335219
 40  -0.00335219
 41  -0.00335219
 42  -0.01140892
 43  -0.00000712
 44  0.00000712
Sym=X
Ene=0.00000000
Spin=Alpha
Occup=0
 1  0.02964481
 2  -0.08887209
 3  0.13154107
 4  -0.23903109
 5  1.59350210
 6  0.00004140
 7  0.00025518
 8  0.07892438
 9  0.00131456
 10  0.00103699
 11  -0.39529008
 12  -0.00046536
 13  0.00230240
 14  1.70343368
 15  0.00000379
 16  0.00002474
 17  0.01674293
 18  -0.01674293
 19  -0.01674293
 20  0.00145105
 21  -0.00000561
 22  0.00000561
 23  0.11322651
 24  -0.12306144
 25  0.05778639
 26  -0.05448135
 27  -1.50170622
 28  0.00404838
 29  0.00223719
 30  0.05754678
 31  -0.01172369
 32  -0.00057707
 33  -0.17878872
 34  0.00741393
 35  -0.00551751
 36  1.03118125
 37  0.00000808
 38  0.00011461
 39  -0.05790429
 40  0.05790429
 41  0.05790429
 42  0.00043019
 43  -0.00001124
 44  0.00001124
Sym=X
Ene=0.00000000
Spin=Alpha
Occup=0
 1  0.00000752
 2  -0.00000243
 3  -0.00002833
 4  -0.00020111
 5  -0.00160174
 6  0.05481513
 7  0.05681512
 8  0.00012335
 9  -0.85216275
 10  -0.88303308
 11  -0.00007711
 12  0.98149153
 13  1.01724008
 14  -0.00068245
 15  0.00000744
 16  -0.02863845
 17  -0.00024143
 18  0.00024143
 19  0.00024143
 20  -0.02760485
 21  0.00000249
 22  -0.00000249
 23  0.00741360
 24  -0.01257407
 25  0.00668584
 26  -0.00241063
 27  0.00331418
 28  0.01991906
 29  0.02059656
 30  0.00003974
 31  -0.30296116
 32  -0.31366765
 33  0.00067613
 34  0.27223007
 35  0.28168545
 36  -0.00188853
 37  0.00004964
 38  0.07472925
 39  0.00012949
 40  -0.00012949
 41  -0.00012949
 42  0.07212240
 43  -0.00000690
 44  0.00000690
Sym=X
Ene=0.00000000
Spin=Alpha
Occup=0
 1  0.00009951
 2  0.00004022
 3  0.00033427
 4  -0.00088519
 5  0.00183834
 6  0.05677318
 7  -0.05481706
 8  -0.00057037
 9  -0.88321869
 10  0.85234184
 11  0.00120539
 12  1.01683542
 13  -0.98162081
 14  -0.00220584
 15  -0.00000256
 16  0.02763159
 17  0.00065270
 18  -0.00065270
 19  -0.00065270
 20  -0.02869858
 21  0.00000744
 22  -0.00000744
 23  -0.02431259
 24  0.04104027
 25  -0.02168060
 26  0.00729721
 27  -0.00583414
 28  0.02042551
 29  -0.01998130
 30  -0.00045057
 31  -0.31333069
 32  0.30285187
 33  -0.00039630
 34  0.28200840
 35  -0.27204225
 36  0.00105742
 37  0.00000683
 38  -0.07214220
 39  -0.00053139
 40  0.00053139
 41  0.00053139
 42  0.07472380
 43  0.00004967
 44  -0.00004967
Sym=X
Ene=0.00000000
Spin=Alpha
Occup=0
 1  -0.01468902
 2  0.02180813
 3  -0.01392920
 4  0.18126467
 5  0.80350883
 6  -0.00006775
 7  0.00020122
 8  -0.10083804
 9  0.00151431
 10  -0.00208818
 11  0.89696971
 12  -0.00197618
 13  0.00363521
 14  -1.02876635
 15  -0.00000512
 16  0.00000023
 17  0.09898598
 18  -0.09898598
 19  -0.09898598
 20  0.00032809
 21  0.00000255
 22  -0.00000255
 23  -0.08698751
 24  0.16396244
 25  -0.09221941
 26  0.10253482
 27  -0.35874568
 28  0.00095915
 29  0.00045765
 30  0.11257468
 31  -0.00349284
 32  0.00085240
 33  -1.15607452
 34  0.00306514
 35  -0.00282233
 36  2.12390451
 37  -0.00000071
 38  0.00022856
 39  0.00378450
 40  -0.00378450
 41  -0.00378450
 42  0.00004101
 43  -0.00000002
 44  0.00000002
Sym=X
Ene=0.00000000
Spin=Alpha
Occup=0
 1  -0.00477493
 2  -0.07641142
 3  -0.02021611
 4  0.23006121
 5  -0.08403066
 6  0.00119792
 7  -0.00171636
 8  0.10159760
 9  -0.02087744
 10  0.02653394
 11  1.03293906
 12  0.03391788
 13  -0.04563920
 14  -0.67951804
 15  0.00000444
 16  -0.00123034
 17  -0.23160163
 18  0.23160163
 19  0.23160163
 20  -0.00019558
 21  -0.00000493
 22  0.00000493
 23  -0.10606482
 24  0.25738617
 25  -0.06989511
 26  -0.29242508
 27  0.16633981
 28  -0.00471729
 29  0.00037941
 30  0.12378426
 31  0.03625986
 32  -0.03771544
 33  0.83719734
 34  -0.04569895
 35  0.05783760
 36  -0.44472148
 37  0.00002176
 38  -0.00113258
 39  0.23391124
 40  -0.23391124
 41  -0.23391124
 42  0.00045182
 43  -0.00001362
 44  0.00001362
Sym=X
Ene=0.00000000
Spin=Alpha
Occup=0
 1  0.06418486
 2  -0.05328581
 3  0.20762293
 4  -0.73661415
 5  0.86193485
 6  0.04847265
 7  -0.02826483
 8  -0.02903376
 9  -0.83290741
 10  0.48573903
 11  0.16361231
 12  1.41321471
 13  -0.82395042
 14  -0.05412053
 15  -0.00000327
 16  -0.02834840
 17  0.00841773
 18  -0.00841773
 19  -0.00841773
 20  0.04873334
 21  -0.00000041
 22  0.00000041
 23  0.11929150
 24  -0.18787836
 25  0.10907823
 26  -0.12060848
 27  -0.11109087
 28  -0.07636789
 29  0.04482632
 30  -0.01785812
 31  1.32045695
 32  -0.77019900
 33  -0.10811540
 34  -1.87451750
 35  1.09283833
 36  0.23905970
 37  -0.00002225
 38  -0.01361008
 39  -0.10021854
 40  0.10021854
 41  0.10021854
 42  0.02336901
 43  -0.00006382
 44  0.00006382
Sym=X
Ene=0.00000000
Spin=Alpha
Occup=0
 1  0.03143888
 2  -0.02638574
 3  0.10169794
 4  -0.35995587
 5  0.42279942
 6  -0.03217152
 7  -0.04888375
 8  -0.01399699
 9  0.55300252
 10  0.84026816
 11  0.08352020
 12  -0.93825194
 13  -1.42562826
 14  -0.02812091
 15  -0.00000006
 16  -0.04910600
 17  0.00366620
 18  -0.00366620
 19  -0.00366620
 20  -0.03232283
 21  -0.00000334
 22  0.00000334
 23  0.04519682
 24  -0.06945727
 25  0.04168734
 26  -0.05586354
 27  -0.05816297
 28  0.05089634
 29  0.07731187
 30  -0.00853512
 31  -0.87722815
 32  -1.33286527
 33  -0.04960855
 34  1.24470899
 35  1.89125502
 36  0.11539472
 37  0.00006606
 38  -0.02351680
 39  -0.04847499
 40  0.04847499
 41  0.04847499
 42  -0.01547455
 43  -0.00002343
 44  0.00002343
Sym=X
Ene=0.00000000
Spin=Alpha
Occup=0
 1  0.18991404
 2  -0.16625041
 3  0.61463691
 4  -2.15607755
 5  2.57760739
 6  -0.01126564
 7  0.01780920
 8  -0.07835540
 9  0.19352430
 10  -0.30783492
 11  0.58156074
 12  -0.32913352
 13  0.52206672
 14  -0.19908690
 15  -0.00000004
 16  0.01817911
 17  0.00878368
 18  -0.00878368
 19  -0.00878368
 20  -0.01230223
 21  -0.00000098
 22  0.00000098
 23  0.01563196
 24  0.02213378
 25  0.02261874
 26  -0.28083474
 27  -0.43196612
 28  0.01586006
 29  -0.02973123
 30  -0.04504944
 31  -0.30406395
 32  0.49159299
 33  -0.22358017
 34  0.43558808
 35  -0.69472036
 36  0.66880197
 37  0.00000535
 38  0.00840251
 39  -0.27684433
 40  0.27684433
 41  0.27684433
 42  -0.00547435
 43  0.00001601
 44  -0.00001601
Sym=X
Ene=0.00000000
Spin=Alpha
Occup=0
 1  0.00000751
 2  -0.00001067
 3  0.00002685
 4  -0.00010231
 5  0.00019193
 6  0.00001316
 7  0.00001731
 8  0.00000509
 9  0.00002591
 10  0.00001888
 11  -0.00000587
 12  -0.00000946
 13  -0.00000574
 14  0.00007649
 15  -0.47057638
 16  -0.00003217
 17  -0.00000536
 18  0.00000536
 19  0.00000536
 20  -0.00002957
 21  0.16598330
 22  -0.16598330
 23  0.00002201
 24  -0.00004796
 25  0.00001017
 26  0.00009531
 27  -0.00019939
 28  -0.00000303
 29  -0.00000271
 30  0.00000024
 31  -0.00005714
 32  -0.00009354
 33  0.00001069
 34  0.00006786
 35  0.00010676
 36  0.00003274
 37  -0.69325690
 38  0.00003492
 39  0.00002604
 40  -0.00002604
 41  -0.00002604
 42  0.00002792
 43  0.24452393
 44  -0.24452393
Sym=X
Ene=0.00000000
Spin=Alpha
Occup=0
 1  0.00000220
 2  -0.00000269
 3  0.00000745
 4  -0.00002602
 5  0.00004053
 6  -0.00001730
 7  0.00001314
 8  0.00000231
 9  -0.00001831
 10  0.00002644
 11  -0.00000003
 12  0.00000504
 13  -0.00001030
 14  0.00001722
 15  0.16598330
 16  -0.00003036
 17  -0.00000445
 18  0.00000445
 19  0.00000445
 20  0.00003212
 21  0.47057638
 22  -0.47057638
 23  0.00000296
 24  -0.00000440
 25  0.00000114
 26  0.00000581
 27  -0.00002664
 28  0.00000366
 29  -0.00000380
 30  0.00000104
 31  0.00009144
 32  -0.00005642
 33  -0.00000416
 34  -0.00010529
 35  0.00006851
 36  0.00001406
 37  0.24452393
 38  0.00002823
 39  0.00000317
 40  -0.00000317
 41  -0.00000317
 42  -0.00003477
 43  0.69325690
 44  -0.69325690
Sym=X
Ene=0.00000000
Spin=Alpha
Occup=0
 1  0.00006503
 2  -0.00007810
 3  0.00022754
 4  -0.00067064
 5  0.00145217
 6  0.00131962
 7  0.00323284
 8  -0.00002210
 9  0.15428053
 10  0.37841214
 11  0.00026353
 12  -0.01235079
 13  -0.03033314
 14  0.00035374
 15  0.00002808
 16  -0.48898636
 17  -0.00003602
 18  0.00003602
 19  0.00003602
 20  -0.19939145
 21  -0.00002899
 22  0.00002899
 23  -0.00388996
 24  0.00658182
 25  -0.00352724
 26  0.00144150
 27  -0.00199445
 28  0.00954461
 29  0.02347273
 30  -0.00002741
 31  0.12290716
 32  0.30124032
 33  0.00023031
 34  -0.08138815
 35  -0.19950706
 36  0.00035858
 37  0.00003266
 38  0.69070092
 39  -0.00003864
 40  0.00003864
 41  0.00003864
 42  0.28164601
 43  -0.00002264
 44  0.00002264
Sym=X
Ene=0.00000000
Spin=Alpha
Occup=0
 1  -0.00191073
 2  0.00206959
 3  -0.00671123
 4  0.02142083
 5  -0.04321916
 6  0.00324373
 7  -0.00130179
 8  0.00036137
 9  0.37845077
 10  -0.15415782
 11  -0.00200940
 12  -0.03016298
 13  0.01210824
 14  -0.01414152
 15  0.00002849
 16  0.19938256
 17  -0.00230819
 18  0.00230819
 19  0.00230819
 20  -0.48875905
 21  0.00002840
 22  -0.00002840
 23  0.08487810
 24  -0.14282378
 25  0.07750648
 26  -0.03737503
 27  0.05605802
 28  0.02411779
 29  -0.00912633
 30  0.00077265
 31  0.30036601
 32  -0.12369772
 33  -0.00139150
 34  -0.19943216
 35  0.08195452
 36  -0.01271295
 37  0.00002179
 38  -0.28164770
 39  0.00030904
 40  -0.00030904
 41  -0.00030904
 42  0.69082624
 43  0.00003302
 44  -0.00003302
Sym=X
Ene=0.00000000
Spin=Alpha
Occup=0
 1  0.00002150
 2  -0.00003034
 3  0.00006935
 4  -0.00022783
 5  0.00028197
 6  -0.00001036
 7  -0.00001899
 8  0.00001113
 9  -0.00000137
 10  0.00001986
 11  -0.00005486
 12  0.00001185
 13  -0.00000947
 14  0.00014553
 15  0.84499802
 16  0.00004326
 17  0.00004400
 18  -0.00004400
 19  -0.00004400
 20  0.00004014
 21  -0.35609213
 22  0.35609213
 23  0.00000945
 24  -0.00003210
 25  -0.00000559
 26  0.00013454
 27  -0.00028724
 28  0.00000598
 29  0.00001119
 30  0.00000098
 31  -0.00003902
 32  -0.00007453
 33  0.00002417
 34  0.00000890
 35  0.00004219
 36  0.00001901
 37  -0.68305485
 38  0.00004201
 39  0.00006390
 40  -0.00006390
 41  -0.00006390
 42  0.00003136
 43  0.28784514
 44  -0.28784514
Sym=X
Ene=0.00000000
Spin=Alpha
Occup=0
 1  -0.00000007
 2  -0.00000023
 3  -0.00000027
 4  0.00000112
 5  -0.00000142
 6  0.00001904
 7  -0.00001045
 8  -0.00000017
 9  -0.00001963
 10  -0.00000166
 11  -0.00000193
 12  0.00000887
 13  0.00001130
 14  -0.00000027
 15  -0.35609213
 16  0.00003975
 17  0.00000137
 18  -0.00000137
 19  -0.00000137
 20  -0.00004319
 21  -0.84499802
 22  0.84499802
 23  0.00001326
 24  -0.00002157
 25  0.00001208
 26  -0.00000906
 27  0.00000875
 28  -0.00000989
 29  0.00000450
 30  0.00000023
 31  0.00007215
 32  -0.00003751
 33  0.00000006
 34  -0.00004068
 35  0.00000914
 36  -0.00000071
 37  0.28784514
 38  0.00003035
 39  -0.00000014
 40  0.00000014
 41  0.00000014
 42  -0.00004227
 43  0.68305486
 44  -0.68305486
Sym=X
Ene=0.00000000
Spin=Alpha
Occup=0
 1  0.16149033
 2  -0.16113792
 3  0.53304453
 4  -2.21221145
 5  2.36030585
 6  0.00205460
 7  0.00082240
 8  0.12482922
 9  0.00382303
 10  0.00317421
 11  -0.93010657
 12  0.00859244
 13  -0.00984526
 14  1.45396893
 15  -0.00004849
 16  -0.00009086
 17  0.05292677
 18  -0.05292677
 19  -0.05292677
 20  0.00837268
 21  0.00001752
 22  -0.00001752
 23  0.18043491
 24  -0.51951730
 25  -0.01703362
 26  1.74601285
 27  -2.59537966
 28  0.02516259
 29  0.01903504
 30  -0.07299799
 31  -0.02789951
 32  -0.03499163
 33  -0.03347234
 34  -0.00155226
 35  0.02356249
 36  0.08879670
 37  0.00008736
 38  -0.00509043
 39  0.85524207
 40  -0.85524207
 41  -0.85524207
 42  0.01497599
 43  -0.00003709
 44  0.00003709
Sym=X
Ene=0.00000000
Spin=Alpha
Occup=0
 1  0.06384209
 2  -0.12095750
 3  0.22422752
 4  -0.63617466
 5  1.56855134
 6  0.00074371
 7  0.00004474
 8  0.40417867
 9  -0.00016954
 10  0.00037147
 11  -0.22015872
 12  0.00224519
 13  -0.00165044
 14  1.19078764
 15  -0.00002549
 16  -0.00087862
 17  1.32395165
 18  -1.32395165
 19  -1.32395165
 20  0.00250558
 21  0.00001303
 22  -0.00001303
 23  0.13806773
 24  -0.21553312
 25  0.09322020
 26  -0.21327852
 27  -1.55667095
 28  0.00276713
 29  0.00236077
 30  -0.00741776
 31  -0.00304745
 32  -0.00386160
 33  1.04040229
 34  -0.00130509
 35  0.00315972
 36  -0.37073421
 37  0.00001764
 38  -0.00113349
 39  -0.06547533
 40  0.06547533
 41  0.06547533
 42  0.00264404
 43  -0.00000661
 44  0.00000661
Sym=X
Ene=0.00000000
Spin=Alpha
Occup=0
 1  -0.02046731
 2  0.09857401
 3  0.03986008
 4  0.06553604
 5  2.94269305
 6  0.09046442
 7  -0.03164237
 8  -0.04409788
 9  -0.08023508
 10  0.03484104
 11  1.04789108
 12  0.32972601
 13  -0.14498119
 14  0.35392590
 15  -0.00000429
 16  -0.13232596
 17  0.13663216
 18  -0.13663216
 19  -0.13663216
 20  0.32654217
 21  -0.00001049
 22  0.00001049
 23  -0.08195237
 24  -0.08185869
 25  -0.32554994
 26  2.45533935
 27  -4.41255927
 28  -0.00528896
 29  0.04904431
 30  0.39319085
 31  0.05446372
 32  -0.09090874
 33  -0.56867577
 34  -0.34470772
 35  0.17743964
 36  2.14905822
 37  0.00001578
 38  -0.12886500
 39  -1.16905887
 40  1.16905887
 41  1.16905887
 42  0.30895533
 43  0.00000348
 44  -0.00000348
Sym=X
Ene=0.00000000
Spin=Alpha
Occup=0
 1  -0.00000503
 2  0.00006215
 3  0.00006273
 4  -0.00011444
 5  0.00233413
 6  0.12802645
 7  0.30662397
 8  0.00003910
 9  -0.12272315
 10  -0.29391410
 11  0.00063125
 12  0.48302815
 13  1.15692835
 14  0.00049112
 15  -0.00002793
 16  1.12627504
 17  0.00027358
 18  -0.00027358
 19  -0.00027358
 20  0.47023209
 21  0.00002530
 22  -0.00002530
 23  0.00105763
 24  -0.00199023
 25  0.00074743
 26  0.00167699
 27  -0.00334453
 28  -0.06804695
 29  -0.16308806
 30  0.00029353
 31  0.15571616
 32  0.37312895
 33  -0.00026293
 34  -0.52999567
 35  -1.26949677
 36  0.00143700
 37  0.00002333
 38  1.06030242
 39  -0.00080376
 40  0.00080376
 41  0.00080376
 42  0.44268366
 43  -0.00001863
 44  0.00001863
Sym=X
Ene=0.00000000
Spin=Alpha
Occup=0
 1  -0.00561225
 2  0.02960132
 3  0.01379465
 4  0.00546517
 5  0.88985415
 6  -0.29275453
 7  0.12447661
 8  -0.00961407
 9  0.28284934
 10  -0.11773628
 11  0.30134875
 12  -1.10902796
 13  0.46052798
 14  0.11746282
 15  0.00002498
 16  0.45137922
 17  0.04304572
 18  -0.04304572
 19  -0.04304572
 20  -1.07766031
 21  0.00002605
 22  -0.00002605
 23  0.08941159
 24  -0.22167110
 25  0.00201304
 26  0.73209020
 27  -1.32532425
 28  0.17097527
 29  -0.05480719
 30  0.12045357
 31  -0.37620029
 32  0.13301547
 33  -0.17340518
 34  1.22312136
 35  -0.49887723
 36  0.64013116
 37  -0.00001440
 38  0.42346159
 39  -0.34164237
 40  0.34164237
 41  0.34164237
 42  -1.01407731
 43  -0.00002339
 44  0.00002339
Sym=X
Ene=0.00000000
Spin=Alpha
Occup=0
 1  0.00000258
 2  0.00000005
 3  0.00001255
 4  -0.00005223
 5  0.00013454
 6  -1.06541699
 7  1.23259337
 8  0.00003863
 9  1.29762943
 10  -1.50125562
 11  -0.00004204
 12  -0.36086217
 13  0.41748059
 14  0.00005254
 15  -0.00000149
 16  -0.15976595
 17  -0.00001296
 18  0.00001296
 19  0.00001296
 20  0.13809433
 21  -0.00001212
 22  0.00001212
 23  0.00120805
 24  -0.00209434
 25  0.00104401
 26  0.00005866
 27  -0.00016248
 28  -0.49264560
 29  0.57001476
 30  0.00005935
 31  0.54955370
 32  -0.63584487
 33  -0.00009664
 34  -0.38422127
 35  0.44454359
 36  0.00009786
 37  0.00000059
 38  -0.30048116
 39  -0.00001809
 40  0.00001809
 41  0.00001809
 42  0.25972248
 43  0.00000361
 44  -0.00000361
Sym=X
Ene=0.00000000
Spin=Alpha
Occup=0
 1  -0.00186087
 2  0.00586689
 3  -0.00396365
 4  -0.00634306
 5  0.02401783
 6  -1.23864605
 7  -1.06912191
 8  0.00438437
 9  1.51102997
 10  1.30398249
 11  -0.00534695
 12  -0.42238726
 13  -0.36364966
 14  0.00836232
 15  -0.00001232
 16  0.14029602
 17  -0.00027182
 18  0.00027182
 19  0.00027182
 20  0.16150571
 21  0.00000151
 22  -0.00000151
 23  0.37674287
 24  -0.65275402
 25  0.32954493
 26  -0.00275880
 27  -0.02444564
 28  -0.55814537
 29  -0.48486517
 30  0.02145441
 31  0.61938960
 32  0.53800769
 33  -0.03100663
 34  -0.43733677
 35  -0.37951869
 36  0.02409741
 37  0.00000407
 38  0.26145958
 39  -0.00340306
 40  0.00340306
 41  0.00340306
 42  0.30216696
 43  -0.00000071
 44  0.00000071
Sym=X
Ene=0.00000000
Spin=Alpha
Occup=0
 1  0.06591298
 2  -0.10218018
 3  0.22805669
 4  -0.68771276
 5  1.41250991
 6  0.02472818
 7  0.01735886
 8  -1.61453390
 9  -0.03779250
 10  -0.02640825
 11  2.14388543
 12  0.01622006
 13  0.01099279
 14  -0.53634139
 15  -0.00000435
 16  -0.00657447
 17  0.36456188
 18  -0.36456188
 19  -0.36456188
 20  -0.00875509
 21  0.00000242
 22  -0.00000242
 23  -0.46515067
 24  0.79848445
 25  -0.43345129
 26  0.01876169
 27  -0.98714903
 28  -0.03451966
 29  -0.02256150
 30  1.02298604
 31  0.04870021
 32  0.03250465
 33  -1.04237000
 34  -0.01955152
 35  -0.01280754
 36  1.04088060
 37  0.00000313
 38  -0.00607628
 39  -0.01673106
 40  0.01673106
 41  0.01673106
 42  -0.00826813
 43  -0.00000128
 44  0.00000128
Sym=X
Ene=0.00000000
Spin=Alpha
Occup=0
 1  0.00002356
 2  -0.00006270
 3  0.00006143
 4  -0.00001659
 5  -0.00002029
 6  -0.52408705
 7  0.78474219
 8  -0.00003340
 9  0.84274346
 10  -1.26188802
 11  0.00005854
 12  -0.38031218
 13  0.56946056
 14  -0.00002671
 15  0.00000006
 16  -0.34491752
 17  0.00000909
 18  -0.00000909
 19  -0.00000909
 20  0.23035597
 21  -0.00001576
 22  0.00001576
 23  -0.00142272
 24  0.00245547
 25  -0.00123295
 26  0.00001262
 27  0.00004216
 28  0.97371084
 29  -1.45800860
 30  -0.00009313
 31  -1.35741398
 32  2.03249023
 33  0.00012340
 34  0.56151097
 35  -0.84076278
 36  -0.00006661
 37  -0.00000075
 38  -0.29293251
 39  0.00000249
 40  -0.00000249
 41  -0.00000249
 42  0.19563561
 43  0.00000578
 44  -0.00000578
Sym=X
Ene=0.00000000
Spin=Alpha
Occup=0
 1  0.00996523
 2  -0.02259801
 3  0.02943128
 4  -0.02937204
 5  0.09463187
 6  -0.77472433
 7  -0.51601969
 8  -0.07696267
 9  1.24931890
 10  0.83236852
 11  0.12170936
 12  -0.56524646
 13  -0.37727974
 14  -0.01588573
 15  -0.00001565
 16  0.22855660
 17  0.02440977
 18  -0.02440977
 19  -0.02440977
 20  0.34451137
 21  -0.00000003
 22  0.00000003
 23  -0.99254355
 24  1.71441936
 25  -0.87984331
 26  0.08290985
 27  -0.11699994
 28  1.45972447
 29  0.97581013
 30  -0.02063811
 31  -2.03388980
 32  -1.35812717
 33  0.04751386
 34  0.84241694
 35  0.56293870
 36  0.02582358
 37  0.00000526
 38  0.19325611
 39  -0.01436958
 40  0.01436958
 41  0.01436958
 42  0.29099887
 43  0.00000088
 44  -0.00000088
Sym=X
Ene=0.00000000
Spin=Alpha
Occup=0
 1  0.60381948
 2  -1.45574105
 3  1.73445084
 4  -1.20636708
 5  4.36823413
 6  0.00610025
 7  0.00341931
 8  -1.58268193
 9  -0.01169342
 10  -0.00670171
 11  3.41198234
 12  0.00603850
 13  0.00384363
 14  0.42096165
 15  -0.00000125
 16  -0.00225319
 17  1.03546009
 18  -1.03546009
 19  -1.03546009
 20  -0.00515264
 21  0.00000080
 22  -0.00000080
 23  1.04183959
 24  -1.96248420
 25  0.76900571
 26  1.34176258
 27  -4.99317806
 28  -0.02187652
 29  -0.01508553
 30  -1.76046486
 31  0.03007552
 32  0.01935107
 33  3.06551553
 34  -0.01312033
 35  -0.00854282
 36  0.77301449
 37  0.00000228
 38  -0.00153478
 39  -0.92002433
 40  0.92002433
 41  0.92002433
 42  -0.00335353
 43  -0.00000050
 44  0.00000050
Sym=X
Ene=0.00000000
Spin=Alpha
Occup=0
 1  -1.59953878
 2  3.92530258
 3  -4.22454087
 4  3.35417169
 5  1.00795932
 6  0.00140759
 7  0.00074333
 8  -1.08013285
 9  -0.00293848
 10  -0.00158379
 11  2.67244648
 12  0.00161500
 13  0.00098733
 14  -0.12126896
 15  0.00000250
 16  -0.00056229
 17  0.71931034
 18  -0.71931034
 19  -0.71931034
 20  -0.00155771
 21  -0.00000091
 22  0.00000091
 23  -0.19059544
 24  0.30006729
 25  -0.28255960
 26  0.64810474
 27  -2.99132882
 28  -0.00634101
 29  -0.00442717
 30  -1.13974176
 31  0.00869565
 32  0.00542546
 33  2.24123298
 34  -0.00388507
 35  -0.00241342
 36  0.62516949
 37  -0.00000085
 38  -0.00035549
 39  -0.92633204
 40  0.92633204
 41  0.92633204
 42  -0.00091853
 43  0.00000050
 44  -0.00000050
Sym=X
Ene=0.00000000
Spin=Alpha
Occup=0
 1  0.13559090
 2  -0.26847627
 3  0.42633816
 4  -0.63398623
 5  1.83233512
 6  0.00829030
 7  0.00379280
 8  -0.17281591
 9  -0.01940560
 10  -0.00920282
 11  0.39816601
 12  0.01174845
 13  0.00638615
 14  0.49399320
 15  0.00000017
 16  -0.00349039
 17  0.11403208
 18  -0.11403208
 19  -0.11403208
 20  -0.01257251
 21  -0.00000006
 22  0.00000006
 23  4.98060013
 24  -5.80448814
 25  0.46390404
 26  2.24649546
 27  -2.75035011
 28  -0.04818188
 29  -0.03390989
 30  -0.19286420
 31  0.06604426
 32  0.03875730
 33  0.20619190
 34  -0.03076839
 35  -0.01737949
 36  0.73088573
 37  -0.00000062
 38  -0.00200641
 39  -0.25912825
 40  0.25912825
 41  0.25912825
 42  -0.00657447
 43  0.00000013
 44  -0.00000013
Sym=X
Ene=0.00000000
Spin=Alpha
Occup=0
 1  0.00000000
 2  0.00000000
 3  0.00000000
 4  0.00000000
 5  0.00000000
 6  0.00000000
 7  0.00000000
 8  0.00000000
 9  0.00000000
 10  0.00000000
 11  0.00000000
 12  0.00000000
 13  0.00000000
 14  0.00000000
 15  0.00000000
 16  0.00000000
 17  0.00000000
 18  -0.00000000
 19  -0.00000000
 20  0.00000000
 21  0.00000000
 22  -0.00000000
 23  0.00000000
 24  0.00000000
 25  0.00000000
 26  0.00000000
 27  0.00000000
 28  0.00000000
 29  0.00000000
 30  0.00000000
 31  0.00000000
 32  0.00000000
 33  0.00000000
 34  0.00000000
 35  0.00000000
 36  0.00000000
 37  0.00000000
 38  0.00000000
 39  0.00000000
 40  -0.00000000
 41  -0.00000000
 42  0.00000000
 43  0.00000000
 44  -0.00000000
Sym=X
Ene=0.00000000
Spin=Alpha
Occup=0
 1  0.00000000
 2  0.00000000
 3  0.00000000
 4  0.00000000
 5  0.00000000
 6  0.00000000
 7  0.00000000
 8  0.00000000
 9  0.00000000
 10  0.00000000
 11  0.00000000
 12  0.00000000
 13  0.00000000
 14  0.00000000
 15  0.00000000
 16  0.00000000
 17  0.00000000
 18  -0.00000000
 19  -0.00000000
 20  0.00000000
 21  0.00000000
 22  -0.00000000
 23  0.00000000
 24  0.00000000
 25  0.00000000