[Molden Format]
[Atoms] (Angs)
 C     1   6   0.00000000   0.00000000   0.00000000
 H     2   1   0.00000000   0.00000000   1.08900000
 H     3   1   1.02672000   0.00000000   -0.36300000
 H     4   1   -0.51336000   -0.88916000   -0.36300000
 H     5   1   -0.51336000   0.88916000   -0.36300000
[STO]
1 0 0 0 0 4.06408103 12.00789533 
1 0 0 0 0 2.64588609 6.30783131 
1 0 0 0 1 0.67734684 0.60379479 
1 0 0 0 1 1.11127216 2.08167379 
1 0 0 0 1 2.43421520 14.78287877 
1 1 0 0 0 0.43392532 0.34352606 
1 0 1 0 0 0.43392532 0.34352606 
1 0 0 1 0 0.43392532 0.34352606 
1 1 0 0 0 0.78318228 1.50341664 
1 0 1 0 0 0.78318228 1.50341664 
1 0 0 1 0 0.78318228 1.50341664 
1 1 0 0 0 1.55578102 8.36167705 
1 0 1 0 0 1.55578102 8.36167705 
1 0 0 1 0 1.55578102 8.36167705 
1 1 1 0 0 1.16418988 7.27543252 
1 0 1 1 0 1.16418988 7.27543252 
1 0 0 2 0 1.16418988 4.20047292 
1 2 0 0 0 1.16418988 2.10023646 
1 0 2 0 0 1.16418988 2.10023646 
1 1 0 1 0 1.16418988 7.27543252 
1 2 0 0 0 1.16418988 3.63771626 
1 0 2 0 0 1.16418988 3.63771626 
2 0 0 0 0 0.36513228 0.32336924 
2 0 0 0 0 0.48684304 0.49785951 
2 0 0 0 0 0.83610000 1.12049699 
2 1 0 0 0 0.66147152 0.98559864 
2 0 1 0 0 0.66147152 0.98559864 
2 0 0 1 0 0.66147152 0.98559864 
3 0 0 0 0 0.36513228 0.32336924 
3 0 0 0 0 0.48684304 0.49785951 
3 0 0 0 0 0.83610000 1.12049699 
3 1 0 0 0 0.66147152 0.98559864 
3 0 1 0 0 0.66147152 0.98559864 
3 0 0 1 0 0.66147152 0.98559864 
4 0 0 0 0 0.36513228 0.32336924 
4 0 0 0 0 0.48684304 0.49785951 
4 0 0 0 0 0.83610000 1.12049699 
4 1 0 0 0 0.66147152 0.98559864 
4 0 1 0 0 0.66147152 0.98559864 
4 0 0 1 0 0.66147152 0.98559864 
5 0 0 0 0 0.36513228 0.32336924 
5 0 0 0 0 0.48684304 0.49785951 
5 0 0 0 0 0.83610000 1.12049699 
5 1 0 0 0 0.66147152 0.98559864 
5 0 1 0 0 0.66147152 0.98559864 
5 0 0 1 0 0.66147152 0.98559864 
[MO]
Sym=X
Ene=0.00000000
Spin=Alpha
Occup=1
 1  0.23343331
 2  0.79486097
 3  -0.00108326
 4  -0.00361336
 5  -0.02047193
 6  -0.00000001
 7  0.00000000
 8  -0.00000001
 9  0.00000001
 10  0.00000000
 11  0.00000001
 12  0.00000000
 13  0.00000000
 14  0.00000000
 15  0.00000000
 16  0.00000000
 17  0.00000000
 18  -0.00000000
 19  -0.00000000
 20  0.00000000
 21  -0.00000000
 22  0.00000000
 23  -0.00107227
 24  0.00244655
 25  -0.00000829
 26  0.00000000
 27  0.00000000
 28  -0.00099314
 29  -0.00107226
 30  0.00244654
 31  -0.00000829
 32  -0.00093634
 33  0.00000000
 34  0.00033105
 35  -0.00107230
 36  0.00244659
 37  -0.00000829
 38  0.00046818
 39  0.00081090
 40  0.00033105
 41  -0.00107230
 42  0.00244659
 43  -0.00000829
 44  0.00046818
 45  -0.00081090
 46  0.00033105
Sym=X
Ene=0.00000000
Spin=Alpha
Occup=1
 1  0.04663545
 2  0.14813046
 3  0.19782081
 4  -0.58596999
 5  0.11603537
 6  -0.00000064
 7  0.00000000
 8  -0.00000032
 9  0.00000090
 10  0.00000000
 11  0.00000045
 12  0.00000061
 13  0.00000000
 14  0.00000030
 15  0.00000000
 16  0.00000000
 17  0.00000005
 18  -0.00000005
 19  -0.00000005
 20  -0.00000011
 21  0.00000004
 22  -0.00000004
 23  0.09370124
 24  -0.29944111
 25  -0.05592659
 26  0.00000004
 27  0.00000000
 28  0.05041296
 29  0.09370133
 30  -0.29944080
 31  -0.05592639
 32  0.04752975
 33  0.00000000
 34  -0.01680424
 35  0.09370085
 36  -0.29944239
 37  -0.05592739
 38  -0.02376517
 39  -0.04116215
 40  -0.01680450
 41  0.09370085
 42  -0.29944239
 43  -0.05592739
 44  -0.02376517
 45  0.04116215
 46  -0.01680450
Sym=X
Ene=0.00000000
Spin=Alpha
Occup=1
 1  0.00000005
 2  0.00000029
 3  -0.00000293
 4  -0.00000060
 5  0.00000001
 6  0.07775084
 7  -0.00000043
 8  0.06026215
 9  -0.36553232
 10  0.00000204
 11  -0.28331241
 12  -0.09907529
 13  0.00000055
 14  -0.07679013
 15  -0.00000012
 16  -0.00000008
 17  -0.01979329
 18  0.01979329
 19  0.01979329
 20  0.01474420
 21  -0.02085114
 22  0.02085114
 23  -0.04382880
 24  -0.28106914
 25  -0.07351702
 26  -0.01642745
 27  0.00000009
 28  0.03491372
 29  -0.03870463
 30  -0.24820879
 31  -0.06492195
 32  0.02324190
 33  0.00000009
 34  -0.02675760
 35  0.04126681
 36  0.26463613
 37  0.06921905
 38  0.00472010
 39  0.03662860
 40  0.00222117
 41  0.04126732
 42  0.26463944
 43  0.06921991
 44  0.00472036
 45  -0.03662888
 46  0.00222136
Sym=X
Ene=0.00000000
Spin=Alpha
Occup=1
 1  0.00000000
 2  0.00000000
 3  0.00000000
 4  0.00000000
 5  0.00000000
 6  -0.00000031
 7  -0.09836925
 8  -0.00000031
 9  0.00000147
 10  0.46247139
 11  0.00000143
 12  0.00000040
 13  0.12535038
 14  0.00000039
 15  -0.02638117
 16  -0.01865428
 17  0.00000010
 18  -0.00000010
 19  -0.00000010
 20  -0.00000006
 21  0.00000008
 22  -0.00000008
 23  0.00000022
 24  0.00000142
 25  0.00000037
 26  0.00000007
 27  0.02078402
 28  -0.00000018
 29  0.00000014
 30  0.00000090
 31  0.00000024
 32  -0.00000008
 33  0.02078400
 34  0.00000012
 35  -0.05841624
 36  -0.37461746
 37  -0.09798571
 38  -0.02993622
 39  -0.03106680
 40  -0.02116807
 41  0.05841587
 42  0.37461514
 43  0.09798510
 44  0.02993617
 45  -0.03106648
 46  0.02116807
Sym=X
Ene=0.00000000
Spin=Alpha
Occup=1
 1  -0.00000001
 2  -0.00000006
 3  0.00000058
 4  0.00000012
 5  -0.00000000
 6  -0.06026132
 7  -0.00000005
 8  0.07774967
 9  0.28331213
 10  0.00000023
 11  -0.36553200
 12  0.07678991
 13  0.00000006
 14  -0.09907511
 15  -0.00000001
 16  -0.00000001
 17  -0.02553744
 18  0.02553744
 19  0.02553744
 20  -0.01142762
 21  0.01616111
 22  -0.01616111
 23  -0.05654740
 24  -0.36263854
 25  -0.09485183
 26  0.01273240
 27  0.00000001
 28  0.04504586
 29  0.06017054
 30  0.38587464
 31  0.10092939
 32  -0.04893880
 33  0.00000001
 34  0.00537659
 35  -0.00181167
 36  -0.01161801
 37  -0.00303883
 38  0.01180403
 39  -0.00160805
 40  -0.01708402
 41  -0.00181161
 42  -0.01161763
 43  -0.00303873
 44  0.01180406
 45  0.00160802
 46  -0.01708400
Sym=X
Ene=0.00000000
Spin=Alpha
Occup=0
 1  0.03658302
 2  -0.12737052
 3  1.71629809
 4  -0.28237525
 5  0.14887631
 6  0.00000464
 7  0.00000002
 8  0.00000232
 9  -0.00000148
 10  -0.00000001
 11  -0.00000074
 12  0.00000048
 13  0.00000000
 14  0.00000024
 15  0.00000000
 16  0.00000000
 17  -0.00000001
 18  0.00000001
 19  0.00000001
 20  0.00000008
 21  0.00000003
 22  -0.00000003
 23  -1.35627006
 24  0.91915597
 25  -0.05426572
 26  -0.00000008
 27  0.00000000
 28  0.04325447
 29  -1.35627290
 30  0.91915809
 31  -0.05426597
 32  0.04078068
 33  0.00000000
 34  -0.01441820
 35  -1.35625836
 36  0.91914726
 37  -0.05426472
 38  -0.02039057
 39  -0.03531702
 40  -0.01441827
 41  -1.35625848
 42  0.91914735
 43  -0.05426473
 44  -0.02039057
 45  0.03531702
 46  -0.01441827
Sym=X
Ene=0.00000000
Spin=Alpha
Occup=0
 1  -0.00000021
 2  0.00000010
 3  -0.00000927
 4  0.00000186
 5  -0.00000083
 6  1.47842227
 7  -0.01085438
 8  0.66251415
 9  -0.16607255
 10  0.00121929
 11  -0.07442068
 12  0.08240099
 13  -0.00060498
 14  0.03692566
 15  0.00011333
 16  0.00008014
 17  0.00847190
 18  -0.00847190
 19  -0.00847190
 20  -0.01091503
 21  0.01543593
 22  -0.01543593
 23  -3.67132916
 24  2.61775248
 25  -0.19196178
 26  -0.01922485
 27  0.00014115
 28  0.05486056
 29  -6.50035430
 30  4.63491982
 31  -0.33988221
 32  0.08673584
 33  0.00014115
 34  -0.04607785
 35  5.03673255
 36  -3.59131738
 37  0.26335317
 38  0.02182704
 39  0.07124435
 40  0.02041299
 41  5.13495681
 42  -3.66135377
 43  0.26848898
 44  0.02262761
 45  -0.07234868
 46  0.02097908
Sym=X
Ene=0.00000000
Spin=Alpha
Occup=0
 1  -0.00000001
 2  0.00000000
 3  -0.00000037
 4  0.00000007
 5  -0.00000003
 6  -0.66250609
 7  0.00357296
 8  1.47846056
 9  0.07441996
 10  -0.00040135
 11  -0.16607657
 12  -0.03692543
 13  0.00019914
 14  0.08240329
 15  -0.00003731
 16  -0.00002638
 17  0.01890560
 18  -0.01890560
 19  -0.01890560
 20  0.00489107
 21  -0.00691709
 22  0.00691709
 23  -8.19289586
 24  5.84174425
 25  -0.42837933
 26  0.00861490
 27  -0.00004646
 28  0.12242651
 29  6.19227504
 30  -4.41525054
 31  0.32377364
 32  -0.09232387
 33  -0.00004646
 34  0.01646201
 35  1.01647687
 36  -0.72477384
 37  0.05314809
 38  0.01689974
 39  0.01430302
 40  -0.01336705
 41  0.98414421
 42  -0.70171985
 43  0.05145753
 44  0.01663621
 45  -0.01393951
 46  -0.01355339
Sym=X
Ene=0.00000000
Spin=Alpha
Occup=0
 1  -0.00000000
 2  0.00000000
 3  -0.00000009
 4  0.00000002
 5  -0.00000001
 6  0.01136635
 7  1.62006753
 8  0.00117815
 9  -0.00127677
 10  -0.18198140
 11  -0.00013234
 12  0.00063351
 13  0.09029576
 14  0.00006566
 15  -0.01691513
 16  -0.01196078
 17  0.00001507
 18  -0.00001507
 19  -0.00001507
 20  -0.00008392
 21  0.00011867
 22  -0.00011867
 23  -0.00652876
 24  0.00465519
 25  -0.00034137
 26  -0.00014780
 27  -0.02106637
 28  0.00009756
 29  -0.05720828
 30  0.04079099
 31  -0.00299124
 32  0.00078473
 33  -0.02106643
 34  -0.00034502
 35  7.36211443
 36  -5.24937560
 37  0.38494019
 38  0.05985634
 39  0.08286383
 40  0.04241398
 41  -7.29837733
 42  5.20392945
 43  -0.38160761
 44  -0.05963245
 45  0.08196406
 46  -0.04207728
Sym=X
Ene=0.00000000
Spin=Alpha
Occup=0
 1  0.00000000
 2  0.00000000
 3  -0.00000001
 4  0.00000000
 5  0.00000000
 6  -0.00652060
 7  3.56559476
 8  0.00744160
 9  0.00252184
 10  -1.37898712
 11  -0.00287803
 12  -0.00034124
 13  0.18659798
 14  0.00038944
 15  0.00531885
 16  0.00376104
 17  -0.00001360
 18  0.00001360
 19  0.00001360
 20  -0.00000688
 21  0.00000973
 22  -0.00000973
 23  -0.01011678
 24  0.00405253
 25  -0.00009915
 26  0.00008561
 27  -0.04681398
 28  0.00006413
 29  0.01172992
 30  -0.00469870
 31  0.00011496
 32  -0.00009130
 33  -0.04681369
 34  -0.00003516
 35  3.95711556
 36  -1.58513937
 37  0.03878586
 38  0.02992562
 39  0.00486816
 40  0.02100236
 41  -3.95872873
 42  1.58578557
 43  -0.03880167
 44  -0.02976656
 45  0.00488923
 46  -0.02120637
Sym=X
Ene=0.00000000
Spin=Alpha
Occup=0
 1  0.00000007
 2  -0.00000003
 3  0.00000252
 4  -0.00000077
 5  0.00000025
 6  -2.01337249
 7  -0.00982368
 8  2.94274540
 9  0.77866895
 10  0.00379929
 11  -1.13810233
 12  -0.10536595
 13  -0.00051410
 14  0.15400279
 15  -0.00001465
 16  -0.00001036
 17  -0.00537673
 18  0.00537673
 19  0.00537673
 20  -0.00212393
 21  0.00300365
 22  -0.00300365
 23  -4.00063323
 24  1.60255413
 25  -0.03920991
 26  0.02643432
 27  0.00012898
 28  0.02535947
 29  3.91415592
 30  -1.56791093
 31  0.03836216
 32  -0.03259735
 33  0.00012898
 34  -0.01776548
 35  0.03233233
 36  -0.01295254
 37  0.00031709
 38  0.02667823
 39  0.00055120
 40  -0.03846436
 41  0.05414155
 42  -0.02168888
 43  0.00053086
 44  0.02684268
 45  -0.00057808
 46  -0.03834807
Sym=X
Ene=0.00000000
Spin=Alpha
Occup=0
 1  -0.00000048
 2  0.00000025
 3  -0.00001813
 4  0.00000554
 5  -0.00000180
 6  2.94277532
 7  0.00117952
 8  2.01339916
 9  -1.13811160
 10  -0.00045617
 11  -0.77867732
 12  0.15400363
 13  0.00006173
 14  0.10536673
 15  0.00000176
 16  0.00000124
 17  -0.00367833
 18  0.00367833
 19  0.00367833
 20  0.00310380
 21  -0.00438990
 22  0.00438990
 23  -2.73721614
 24  1.09647130
 25  -0.02682878
 26  -0.03863646
 27  -0.00001549
 28  0.01735043
 29  -2.85948519
 30  1.14544633
 31  -0.02802673
 32  0.00448857
 33  -0.00001549
 34  -0.04168125
 35  2.79967242
 36  -1.12148981
 37  0.02743988
 38  -0.01752520
 39  0.03655184
 40  -0.01150659
 41  2.79705377
 42  -1.12044082
 43  0.02741421
 44  -0.01754494
 45  -0.03654861
 46  -0.01152055
Sym=X
Ene=0.00000000
Spin=Alpha
Occup=0
 1  0.00001574
 2  0.00001348
 3  0.00026190
 4  -0.00020431
 5  0.00004910
 6  0.00001370
 7  -0.00000000
 8  0.00001137
 9  -0.00000492
 10  0.00000000
 11  -0.00000408
 12  -0.00000063
 13  0.00000000
 14  -0.00000052
 15  -0.00000001
 16  0.00000002
 17  0.00000048
 18  -0.00000048
 19  -0.00000048
 20  0.03370973
 21  0.02383709
 22  -0.02383709
 23  -0.00032142
 24  0.00037031
 25  -0.00002756
 26  0.47825090
 27  0.00000024
 28  0.00007699
 29  -0.00031440
 30  0.00036472
 31  -0.00002718
 32  0.15948902
 33  -0.00000023
 34  0.45087378
 35  -0.00025369
 36  0.00031638
 37  -0.00002396
 38  -0.31887082
 39  0.27606275
 40  -0.22547640
 41  -0.00025367
 42  0.00031637
 43  -0.00002396
 44  -0.31887109
 45  -0.27606275
 46  -0.22547602
Sym=X
Ene=0.00000000
Spin=Alpha
Occup=0
 1  0.00000000
 2  0.00000000
 3  0.00000000
 4  -0.00000000
 5  0.00000000
 6  -0.00000000
 7  -0.00000236
 8  0.00000000
 9  0.00000000
 10  0.00000085
 11  -0.00000000
 12  0.00000000
 13  0.00000011
 14  0.00000000
 15  -0.02383681
 16  0.03371051
 17  0.00000000
 18  -0.00000000
 19  -0.00000000
 20  -0.00000002
 21  -0.00000001
 22  0.00000001
 23  -0.00000001
 24  0.00000001
 25  0.00000000
 26  -0.00000023
 27  0.47825528
 28  0.00000000
 29  0.00000001
 30  -0.00000001
 31  0.00000000
 32  -0.00000008
 33  -0.47825453
 34  -0.00000022
 35  -0.00000605
 36  0.00000482
 37  -0.00000032
 38  0.27611938
 39  -0.00000034
 40  -0.39049237
 41  0.00000604
 42  -0.00000481
 43  0.00000032
 44  -0.27611907
 45  -0.00000007
 46  0.39049259
Sym=X
Ene=0.00000000
Spin=Alpha
Occup=0
 1  -0.07866046
 2  -0.06128608
 3  -1.33321359
 4  1.01523120
 5  -0.24606277
 6  -0.00012751
 7  -0.00000009
 8  -0.00006349
 9  0.00006761
 10  0.00000005
 11  0.00003366
 12  -0.00000204
 13  -0.00000000
 14  -0.00000102
 15  0.00000000
 16  0.00000000
 17  -0.00000194
 18  0.00000194
 19  0.00000194
 20  0.00000900
 21  0.00000159
 22  -0.00000159
 23  1.37881253
 24  -1.63340333
 25  0.12083031
 26  0.00010687
 27  0.00000001
 28  -0.36466434
 29  1.37891103
 30  -1.63347711
 31  0.12083537
 32  -0.34377751
 33  0.00000001
 34  0.12165543
 35  1.37841129
 36  -1.63310284
 37  0.12080971
 38  0.17183604
 39  0.29778703
 40  0.12150481
 41  1.37841172
 42  -1.63310317
 43  0.12080973
 44  0.17183606
 45  -0.29778704
 46  0.12150482
Sym=X
Ene=0.00000000
Spin=Alpha
Occup=0
 1  -0.00000078
 2  -0.00000044
 3  -0.00001800
 4  0.00000979
 5  -0.00000258
 6  2.53332855
 7  -0.00349279
 8  -2.89783407
 9  -1.35582128
 10  0.00186932
 11  1.55090297
 12  0.02403593
 13  -0.00003314
 14  -0.02749443
 15  0.00010183
 16  0.00007201
 17  -0.10347517
 18  0.10347517
 19  0.10347517
 20  -0.05222678
 21  0.07385977
 22  -0.07385977
 23  8.33783899
 24  -6.32351145
 25  0.44158744
 26  -0.16811868
 27  0.00023179
 28  -0.39704795
 29  -9.65144061
 30  7.31975369
 31  -0.51115774
 32  0.47506733
 33  0.00023179
 34  -0.03509248
 35  0.64861891
 36  -0.49192288
 37  0.03435216
 38  -0.14650543
 39  0.03766824
 40  0.20759285
 41  0.66503001
 42  -0.50436924
 43  0.03522132
 44  -0.14595859
 45  -0.03815179
 46  0.20797952
Sym=X
Ene=0.00000000
Spin=Alpha
Occup=0
 1  0.00000297
 2  0.00000167
 3  0.00006860
 4  -0.00003732
 5  0.00000983
 6  -2.89774015
 7  0.02898435
 8  -2.53327885
 9  1.55084970
 10  -0.01551226
 11  1.35579321
 12  -0.02749296
 13  0.00027500
 14  -0.02403514
 15  -0.00084505
 16  -0.00059754
 17  -0.09045795
 18  0.09045795
 19  0.09045795
 20  0.05974036
 21  -0.08448395
 22  0.08448395
 23  7.28886715
 24  -5.52793996
 25  0.38603085
 26  0.19230580
 27  -0.00192349
 28  -0.34708285
 29  5.43104226
 30  -4.11894545
 31  0.28763697
 32  -0.16962189
 33  -0.00192349
 34  0.29607852
 35  -6.29195238
 36  4.77189576
 37  -0.33323369
 38  -0.01735960
 39  -0.36506136
 40  0.01986249
 41  -6.42813742
 42  4.87517998
 43  -0.34044630
 44  -0.02189742
 45  0.36907408
 46  0.01665378
Sym=X
Ene=0.00000000
Spin=Alpha
Occup=0
 1  0.00000003
 2  0.00000001
 3  0.00000061
 4  -0.00000033
 5  0.00000009
 6  -0.02412033
 7  -3.84893532
 8  -0.01644713
 9  0.01290902
 10  2.05992749
 11  0.00880238
 12  -0.00022885
 13  -0.03651839
 14  -0.00015605
 15  0.11221787
 16  0.07934986
 17  -0.00058729
 18  0.00058729
 19  0.00058729
 20  0.00049727
 21  -0.00070323
 22  0.00070323
 23  0.04732236
 24  -0.03588966
 25  0.00250627
 26  0.00160072
 27  0.25542617
 28  -0.00225338
 29  0.04965682
 30  -0.03766014
 31  0.00262991
 32  -0.00170843
 33  0.25542694
 34  0.00226146
 35  -9.09074275
 36  6.89451773
 37  -0.48146287
 38  -0.30131161
 39  -0.26922993
 40  -0.21309913
 41  8.99376203
 42  -6.82096633
 43  0.47632659
 44  0.30128138
 45  -0.26363271
 46  0.21299699
Sym=X
Ene=0.00000000
Spin=Alpha
Occup=0
 1  0.00000000
 2  0.00000000
 3  -0.00000000
 4  0.00000000
 5  0.00000000
 6  0.00000282
 7  0.00000000
 8  -0.00001424
 9  -0.00000095
 10  0.00000000
 11  0.00000561
 12  0.00000014
 13  0.00000000
 14  -0.00000109
 15  0.00000000
 16  0.00000000
 17  -0.00000032
 18  0.00000032
 19  0.00000032
 20  -0.00000003
 21  0.00000003
 22  -0.00000003
 23  0.00001864
 24  -0.00000866
 25  0.00000007
 26  -0.91369332
 27  -0.00001494
 28  -0.00000053
 29  -0.00001083
 30  0.00000509
 31  -0.00000005
 32  0.30456595
 33  0.00002111
 34  0.86143943
 35  -0.00000391
 36  0.00000178
 37  -0.00000001
 38  0.30457732
 39  -0.00000357
 40  -0.43072783
 41  -0.00000391
 42  0.00000178
 43  -0.00000001
 44  0.30454938
 45  -0.00000259
 46  -0.43070343
Sym=X
Ene=0.00000000
Spin=Alpha
Occup=0
 1  0.00000000
 2  0.00000000
 3  -0.00000000
 4  0.00000000
 5  0.00000000
 6  0.00000000
 7  0.00001197
 8  0.00000000
 9  0.00000000
 10  -0.00000501
 11  0.00000000
 12  0.00000000
 13  0.00000106
 14  0.00000000
 15  -0.00000021
 16  -0.00000023
 17  0.00000000
 18  -0.00000000
 19  -0.00000000
 20  0.00000000
 21  0.00000000
 22  -0.00000000
 23  -0.00000000
 24  0.00000000
 25  0.00000000
 26  -0.00002249
 27  0.69216548
 28  0.00000000
 29  0.00000000
 30  0.00000000
 31  0.00000000
 32  0.00000750
 33  -0.79304924
 34  0.00002120
 35  0.00001094
 36  -0.00000497
 37  0.00000001
 38  -0.48698093
 39  0.05043789
 40  0.56514524
 41  -0.00001094
 42  0.00000497
 43  -0.00000001
 44  0.48699592
 45  0.05043789
 46  -0.56516644
Sym=X
Ene=0.00000000
Spin=Alpha
Occup=0
 1  0.00000000
 2  0.00000000
 3  0.00000000
 4  0.00000000
 5  0.00000000
 6  0.00000000
 7  -0.00006270
 8  0.00000000
 9  0.00000000
 10  0.00002645
 11  0.00000000
 12  0.00000000
 13  -0.00000563
 14  0.00000000
 15  0.00000130
 16  0.00000091
 17  0.00000000
 18  -0.00000000
 19  -0.00000000
 20  0.00000000
 21  0.00000000
 22  -0.00000000
 23  0.00000000
 24  0.00000000
 25  0.00000000
 26  0.00000321
 27  0.59644990
 28  0.00000000
 29  -0.00000000
 30  0.00000000
 31  0.00000000
 32  -0.00000107
 33  0.45378538
 34  -0.00000302
 35  -0.00005612
 36  0.00002544
 37  -0.00000005
 38  0.56515188
 39  -0.52509621
 40  0.48698889
 41  0.00005612
 42  -0.00002545
 43  0.00000005
 44  -0.56515402
 45  -0.52509621
 46  -0.48698586
Sym=X
Ene=0.00000000
Spin=Alpha
Occup=0
 1  0.39872957
 2  -0.52103734
 3  7.28520583
 4  -4.50593110
 5  1.27411821
 6  0.00016437
 7  -0.00000005
 8  0.00008193
 9  -0.00006804
 10  0.00000002
 11  -0.00003391
 12  0.00001727
 13  -0.00000001
 14  0.00000861
 15  0.00000000
 16  0.00000000
 17  0.00000384
 18  -0.00000384
 19  -0.00000384
 20  -0.00000481
 21  0.00000604
 22  -0.00000604
 23  0.02112033
 24  -1.67676624
 25  0.35184328
 26  -0.00004127
 27  0.00000001
 28  -0.02344941
 29  0.02108546
 30  -1.67675002
 31  0.35184368
 32  -0.02212846
 33  0.00000001
 34  0.00778880
 35  0.02126265
 36  -1.67683244
 37  0.35184166
 38  0.01100404
 39  0.01913722
 40  0.00779001
 41  0.02126270
 42  -1.67683245
 43  0.35184166
 44  0.01100405
 45  -0.01913720
 46  0.00779002
Sym=X
Ene=0.00000000
Spin=Alpha
Occup=0
 1  0.00000657
 2  -0.00000875
 3  0.00012434
 4  -0.00007455
 5  0.00002110
 6  -2.58548140
 7  0.00040910
 8  2.70913329
 9  1.00999791
 10  -0.00015981
 11  -1.05830271
 12  -0.25716082
 13  0.00004069
 14  0.26946030
 15  -0.00001644
 16  -0.00001163
 17  0.13335676
 18  -0.13335676
 19  -0.13335676
 20  0.07347922
 21  -0.10391522
 22  0.10391522
 23  -2.28080135
 24  1.03311986
 25  0.03171801
 26  0.62786069
 27  -0.00009935
 28  -0.56086151
 29  2.81248659
 30  -1.27401842
 31  -0.03909800
 32  0.51505612
 33  -0.00009935
 34  -0.61800591
 35  -0.26555980
 36  0.12026303
 37  0.00369840
 38  0.62253764
 39  -0.00932452
 40  -0.66165921
 41  -0.26612222
 42  0.12051779
 43  0.00370622
 44  0.62252636
 45  0.00914536
 46  -0.66166719
Sym=X
Ene=0.00000000
Spin=Alpha
Occup=0
 1  -0.00002126
 2  0.00002833
 3  -0.00040251
 4  0.00024135
 5  -0.00006831
 6  2.70916741
 7  -0.00050531
 8  2.58550075
 9  -1.05830942
 10  0.00019739
 11  -1.01000138
 12  0.26946115
 13  -0.00005026
 14  0.25716154
 15  0.00002031
 16  0.00001436
 17  0.12726949
 18  -0.12726949
 19  -0.12726949
 20  -0.07699402
 21  0.10888474
 22  -0.10888474
 23  -2.17675130
 24  0.98611393
 25  0.03024379
 26  -0.65789925
 27  0.00012271
 28  -0.53525585
 29  -1.42484512
 30  0.64551679
 31  0.01978978
 32  -0.60074138
 33  0.00012271
 34  -0.64807260
 35  1.80044565
 36  -0.81546746
 37  -0.02505182
 38  -0.62178448
 39  0.06266755
 40  -0.60233226
 41  1.80114035
 42  -0.81578214
 43  -0.02506148
 44  -0.62177055
 45  -0.06244625
 46  -0.60232241
Sym=X
Ene=0.00000000
Spin=Alpha
Occup=0
 1  -0.00000000
 2  0.00000000
 3  -0.00000001
 4  0.00000002
 5  -0.00000001
 6  -0.00064801
 7  -3.74488980
 8  -0.00005292
 9  0.00025314
 10  1.46290832
 11  0.00002067
 12  -0.00006445
 13  -0.37248055
 14  -0.00000526
 15  0.15051350
 16  0.10642900
 17  -0.00000261
 18  0.00000261
 19  0.00000261
 20  0.00001842
 21  -0.00002604
 22  0.00002604
 23  0.00004456
 24  -0.00002018
 25  -0.00000062
 26  0.00015736
 27  0.90940951
 28  0.00001096
 29  0.00049952
 30  -0.00022628
 31  -0.00000694
 32  0.00013733
 33  0.90940752
 34  0.00001993
 35  -2.57455299
 36  1.16622125
 37  0.03579385
 38  -0.05148679
 39  0.81999520
 40  -0.03650351
 41  2.57400890
 42  -1.16597479
 43  -0.03578629
 44  0.05179060
 45  0.82001410
 46  0.03652149
Sym=X
Ene=0.00000000
Spin=Alpha
Occup=0
 1  0.00000129
 2  -0.00000280
 3  0.00005762
 4  -0.00001324
 5  0.00000501
 6  3.02607781
 7  -0.00414800
 8  2.40318250
 9  0.43027230
 10  -0.00058981
 11  0.34170522
 12  0.02809032
 13  -0.00003850
 14  0.02230775
 15  -0.00024996
 16  -0.00017674
 17  -0.17735834
 18  0.17735834
 19  0.17735834
 20  0.12893989
 21  -0.18234628
 22  0.18234628
 23  -4.85637512
 24  1.76313888
 25  0.04368237
 26  -0.63375310
 27  0.00086872
 28  0.98750902
 29  -4.14660143
 30  1.50544920
 31  0.03729836
 32  0.56637199
 33  0.00086872
 34  -0.92760665
 35  4.49464001
 36  -1.63183490
 37  -0.04042429
 38  0.01667169
 39  1.12742477
 40  -0.04338095
 41  4.50832832
 42  -1.63680457
 43  -0.04054741
 44  0.01865254
 45  -1.12911825
 46  -0.04198027
Sym=X
Ene=0.00000000
Spin=Alpha
Occup=0
 1  0.00000000
 2  -0.00000000
 3  -0.00000002
 4  -0.00000001
 5  0.00000000
 6  0.00195312
 7  3.86423400
 8  0.00421056
 9  0.00027771
 10  0.54945409
 11  0.00059868
 12  0.00001813
 13  0.03586855
 14  0.00003909
 15  0.23285397
 16  0.16465241
 17  -0.00031074
 18  0.00031074
 19  0.00031074
 20  0.00008322
 21  -0.00011769
 22  0.00011769
 23  -0.00850873
 24  0.00308919
 25  0.00007653
 26  -0.00040905
 27  -0.80928872
 28  0.00173017
 29  -0.00088493
 30  0.00032129
 31  0.00000796
 32  -0.00015293
 33  -0.80928850
 34  -0.00097237
 35  6.38064974
 36  -2.31655869
 37  -0.05738910
 38  0.92294206
 39  0.78999042
 40  0.65202485
 41  -6.37125609
 42  2.31314825
 43  0.05730460
 44  -0.92240077
 45  0.78763594
 46  -0.65282727
Sym=X
Ene=0.00000000
Spin=Alpha
Occup=0
 1  -0.00000027
 2  0.00000059
 3  -0.00001212
 4  0.00000280
 5  -0.00000106
 6  -2.40320982
 7  -0.00208261
 8  3.02610227
 9  -0.34169117
 10  -0.00029612
 11  0.43025629
 12  -0.02231314
 13  -0.00001933
 14  0.02809603
 15  -0.00012549
 16  -0.00008874
 17  -0.22332540
 18  0.22332540
 19  0.22332540
 20  -0.10239644
 21  0.14481048
 22  -0.14481048
 23  -6.11516059
 24  2.22018987
 25  0.05499771
 26  0.50329983
 27  0.00043616
 28  1.24345064
 29  6.61705728
 30  -2.40240440
 31  -0.05951255
 32  -1.41180508
 33  0.00043616
 34  0.04334035
 35  -0.25438376
 36  0.09236024
 37  0.00228738
 38  0.46649357
 39  -0.06332247
 40  -0.65978736
 41  -0.24751118
 42  0.08986507
 43  0.00222557
 44  0.46748810
 45  0.06247222
 46  -0.65908412
Sym=X
Ene=0.00000000
Spin=Alpha
Occup=0
 1  0.17992901
 2  -0.18990591
 3  13.32552572
 4  -1.88736631
 5  0.84639369
 6  -0.00001628
 7  0.00000004
 8  -0.00000815
 9  -0.00002400
 10  -0.00000000
 11  -0.00001197
 12  0.00000339
 13  0.00000000
 14  0.00000169
 15  0.00000000
 16  0.00000000
 17  0.00000307
 18  -0.00000307
 19  -0.00000307
 20  -0.00001853
 21  -0.00000557
 22  0.00000557
 23  0.30797316
 24  -4.21042686
 25  0.79857621
 26  0.00001225
 27  -0.00000001
 28  1.51616856
 29  0.30797799
 30  -4.21041822
 31  0.79857392
 32  1.42945830
 33  -0.00000001
 34  -0.50537725
 35  0.30795293
 36  -4.21046186
 37  0.79858559
 38  -0.71474043
 39  -1.23795250
 40  -0.50539822
 41  0.30795278
 42  -4.21046177
 43  0.79858559
 44  -0.71474044
 45  1.23795251
 46  -0.50539823
Sym=X
Ene=0.00000000
Spin=Alpha
Occup=0
 1  0.00000000
 2  0.00000000
 3  0.00000000
 4  0.00000000
 5  0.00000000
 6  0.00000000
 7  0.00000250
 8  0.00000000
 9  0.00000000
 10  -0.00000039
 11  0.00000000
 12  0.00000000
 13  0.00000064
 14  0.00000000
 15  -0.74761677
 16  1.05728997
 17  0.00000000
 18  -0.00000000
 19  -0.00000000
 20  -0.00001363
 21  -0.00000964
 22  0.00000964
 23  -0.00000000
 24  0.00000000
 25  0.00000000
 26  0.00000542
 27  -0.42022616
 28  0.00000000
 29  0.00000000
 30  0.00000000
 31  0.00000000
 32  0.00000181
 33  0.42022500
 34  0.00000511
 35  0.00000327
 36  -0.00000096
 37  -0.00000012
 38  -0.24262279
 39  0.00000366
 40  0.34311362
 41  -0.00000327
 42  0.00000096
 43  0.00000012
 44  0.24261556
 45  -0.00000259
 46  -0.34311873
Sym=X
Ene=0.00000000
Spin=Alpha
Occup=0
 1  -0.00000394
 2  0.00000439
 3  -0.00025298
 4  0.00004166
 5  -0.00001749
 6  0.00001448
 7  0.00000000
 8  0.00001200
 9  -0.00000226
 10  0.00000000
 11  -0.00000188
 12  0.00000369
 13  0.00000000
 14  0.00000306
 15  0.00000964
 16  -0.00001363
 17  -0.00000057
 18  0.00000057
 19  0.00000057
 20  -1.05728988
 21  -0.74761768
 22  0.74761768
 23  -0.00002724
 24  0.00008825
 25  -0.00001523
 26  0.42022458
 27  0.00000542
 28  -0.00002342
 29  -0.00002347
 30  0.00008714
 31  -0.00001536
 32  0.14005169
 33  -0.00000542
 34  0.39619872
 35  0.00000924
 36  0.00007756
 37  -0.00001652
 38  -0.28013526
 39  0.24264550
 40  -0.19809229
 41  0.00000924
 42  0.00007756
 43  -0.00001652
 44  -0.28014151
 45  -0.24264550
 46  -0.19808344
Sym=X
Ene=0.00000000
Spin=Alpha
Occup=0
 1  -0.00000028
 2  0.00000161
 3  0.00005082
 4  0.00000528
 5  0.00000063
 6  -0.64570250
 7  -0.00000720
 8  -0.29885372
 9  0.37944282
 10  0.00000423
 11  0.17561302
 12  -0.86731517
 13  -0.00000968
 14  -0.40141199
 15  0.00000916
 16  0.00000648
 17  -0.46529289
 18  0.46529289
 19  0.46529289
 20  0.58043306
 21  -0.82086178
 22  0.82086178
 23  0.96138205
 24  0.21922773
 25  -0.13216288
 26  -0.41657672
 27  -0.00000465
 28  -0.53225935
 29  1.63792739
 30  0.37353283
 31  -0.22517482
 32  -0.96185447
 33  -0.00000465
 34  -0.00001373
 35  -1.29966792
 36  -0.29642516
 37  0.17867972
 38  -0.63292015
 39  -0.37471361
 40  -0.34577596
 41  -1.29963008
 42  -0.29641653
 43  0.17867452
 44  -0.63291385
 45  0.37469340
 46  -0.34577150
Sym=X
Ene=0.00000000
Spin=Alpha
Occup=0
 1  0.00000001
 2  -0.00000005
 3  -0.00000150
 4  -0.00000015
 5  -0.00000002
 6  -0.29882674
 7  0.00001640
 8  0.64568441
 9  0.17561717
 10  -0.00000964
 11  -0.37944775
 12  -0.40141104
 13  0.00002203
 14  0.86731600
 15  -0.00002085
 16  -0.00001474
 17  1.00534542
 18  -1.00534542
 19  -1.00534542
 20  0.26863922
 21  -0.37991178
 22  0.37991178
 23  -2.07714859
 24  -0.47373564
 25  0.28556488
 26  -0.19280282
 27  0.00001058
 28  1.15003514
 29  1.59873308
 30  0.36463140
 31  -0.21979423
 32  -0.72504323
 33  0.00001058
 34  0.60475394
 35  0.23925066
 36  0.05456314
 37  -0.03289149
 38  -0.15297981
 39  0.06898809
 40  0.44474289
 41  0.23916452
 42  0.05454349
 43  -0.03287965
 44  -0.15299415
 45  -0.06894209
 46  0.44473275
Sym=X
Ene=0.00000000
Spin=Alpha
Occup=0
 1  0.00000000
 2  0.00000000
 3  0.00000002
 4  -0.00000000
 5  0.00000000
 6  0.00000035
 7  0.71151768
 8  -0.00001791
 9  -0.00000020
 10  -0.41812139
 11  0.00001052
 12  0.00000047
 13  0.95571073
 14  -0.00002405
 15  -0.90450965
 16  -0.63958544
 17  -0.00002788
 18  0.00002788
 19  0.00002788
 20  -0.00000031
 21  0.00000044
 22  -0.00000044
 23  0.00005761
 24  0.00001313
 25  -0.00000792
 26  0.00000022
 27  0.45902859
 28  -0.00003189
 29  -0.00002026
 30  -0.00000463
 31  0.00000279
 32  0.00000697
 33  0.45902764
 34  -0.00001394
 35  1.86885557
 36  0.42621031
 37  -0.25692537
 38  0.31108066
 39  0.99783580
 40  0.21995529
 41  -1.86889292
 42  -0.42621884
 43  0.25693051
 44  -0.31108643
 45  0.99784657
 46  -0.21998279
Sym=X
Ene=0.00000000
Spin=Alpha
Occup=0
 1  0.00000041
 2  -0.00000036
 3  0.00002796
 4  -0.00000147
 5  0.00000186
 6  -0.70667614
 7  0.00001127
 8  0.85103127
 9  -3.40108921
 10  0.00005423
 11  4.09584491
 12  1.57930761
 13  -0.00002518
 14  -1.90191910
 15  -0.00001161
 16  -0.00000821
 17  1.07411569
 18  -1.07411569
 19  -1.07411569
 20  0.51494916
 21  -0.72824808
 22  0.72824808
 23  0.23975235
 24  -5.71301346
 25  1.24265300
 26  0.21276568
 27  -0.00000339
 28  1.82064456
 29  -0.26760852
 30  6.37694125
 31  -1.38706590
 32  -1.97289123
 33  -0.00000339
 34  0.51651781
 35  0.01393115
 36  -0.33192741
 37  0.07219837
 38  0.15588431
 39  -0.09852591
 40  -0.29645115
 41  0.01393633
 42  -0.33205094
 43  0.07222524
 44  0.15586314
 45  0.09855579
 46  -0.29646611
Sym=X
Ene=0.00000000
Spin=Alpha
Occup=0
 1  -0.00000174
 2  0.00000154
 3  -0.00011919
 4  0.00000627
 5  -0.00000791
 6  0.85087313
 7  -0.02134341
 8  0.70654387
 9  4.09510948
 10  -0.10272286
 11  3.40048003
 12  -1.90157140
 13  0.04769942
 14  -1.57901836
 15  0.02199539
 16  0.01555307
 17  0.89175760
 18  -0.89175760
 19  -0.89175760
 20  -0.62003280
 21  0.87684734
 22  -0.87684734
 23  0.19905704
 24  -4.74306170
 25  1.03167561
 26  -0.25617972
 27  0.00642604
 28  1.51153550
 29  0.15965279
 30  -3.80423632
 31  0.82746937
 32  1.04769723
 33  0.00642603