[Molden Format]
[Atoms] (Angs)
 H     1   1   0.00000000   0.00000000   -0.37068864
 H     2   1   0.00000000   0.00000000   0.37068864
[STO]
1 0 0 0 0 0.36513228 0.32336924 
1 0 0 0 0 0.48684304 0.49785951 
1 0 0 0 0 0.83610000 1.12049699 
1 1 0 0 0 0.66147152 0.98559864 
1 0 1 0 0 0.66147152 0.98559864 
1 0 0 1 0 0.66147152 0.98559864 
2 0 0 0 0 0.36513228 0.32336924 
2 0 0 0 0 0.48684304 0.49785951 
2 0 0 0 0 0.83610000 1.12049699 
2 1 0 0 0 0.66147152 0.98559864 
2 0 1 0 0 0.66147152 0.98559864 
2 0 0 1 0 0.66147152 0.98559864 
[MO]
Sym=X
Ene=0.00000000
Spin=Alpha
Occup=1
 1  0.32161247
 2  -0.85910101
 3  -0.08771276
 4  0.00327803
 5  0.00858969
 6  -0.08845806
 7  -0.11242011
 8  -0.03258428
 9  -0.30067404
 10  0.00330305
 11  -0.00531166
 12  -0.00040503
Sym=X
Ene=0.00000000
Spin=Alpha
Occup=0
 1  6.85635651
 2  -3.82985986
 3  0.20409336
 4  -0.03365307
 5  -0.05928786
 6  0.22919891
 7  -6.78819261
 8  3.67349043
 9  -0.09123734
 10  -0.03547820
 11  0.02465636
 12  0.25061869
Sym=X
Ene=0.00000000
Spin=Alpha
Occup=0
 1  2.22976400
 2  -2.09768817
 3  0.13503426
 4  0.02107670
 5  0.03535611
 6  0.07101857
 7  3.13702166
 8  -3.70235012
 9  0.61257891
 10  0.02100769
 11  -0.01431649
 12  0.02139112
Sym=X
Ene=0.00000000
Spin=Alpha
Occup=0
 1  0.03354251
 2  -0.02733962
 3  0.00182292
 4  -0.23956284
 5  0.47673643
 6  0.00207358
 7  -0.03495337
 8  0.03020927
 9  -0.00346801
 10  -0.24008268
 11  0.47778735
 12  0.00212689
Sym=X
Ene=0.00000000
Spin=Alpha
Occup=0
 1  6.60177882
 2  -5.67249684
 3  0.41904010
 4  -0.30520108
 5  -0.13157321
 6  0.34380898
 7  -7.04049301
 8  6.54084749
 9  -0.90699692
 10  -0.30372765
 11  -0.17792846
 12  0.35009203
Sym=X
Ene=0.00000000
Spin=Alpha
Occup=0
 1  -5.45659690
 2  2.25374767
 3  0.17923293
 4  -0.34757354
 5  0.05713395
 6  -0.89129401
 7  4.73574822
 8  -0.96001022
 9  -0.87587819
 10  -0.34982384
 11  -0.40464071
 12  -0.96075275
Sym=X
Ene=0.00000000
Spin=Alpha
Occup=0
 1  -1.16314832
 2  1.35234070
 3  -0.24440740
 4  0.01383627
 5  -0.19609280
 6  -1.11988778
 7  -2.27035898
 8  3.88160145
 9  -1.13609408
 10  0.01425739
 11  0.21009031
 12  0.87732885
Sym=X
Ene=0.00000000
Spin=Alpha
Occup=0
 1  -0.00350884
 2  -0.00111270
 3  0.00084070
 4  -1.42170786
 5  -0.00092202
 6  -0.00136810
 7  0.00350782
 8  0.00138455
 9  -0.00139321
 10  1.42126814
 11  0.00092378
 12  -0.00205164
Sym=X
Ene=0.00000000
Spin=Alpha
Occup=0
 1  -0.10970013
 2  2.77524008
 3  -0.62456686
 4  0.03757442
 5  1.35778351
 6  0.45037414
 7  0.94358062
 8  -4.38129668
 9  1.70800326
 10  0.03987299
 11  -1.31872179
 12  0.95803652
Sym=X
Ene=0.00000000
Spin=Alpha
Occup=0
 1  2.88876454
 2  5.23730784
 3  -1.41637471
 4  0.01574980
 5  0.09818299
 6  2.58044980
 7  -4.87560659
 8  -1.73186829
 9  -0.49894552
 10  0.01623038
 11  -0.08214459
 12  2.17106267
Sym=X
Ene=0.00000000
Spin=Alpha
Occup=0
 1  0.00000000
 2  0.00000000
 3  0.00000000
 4  0.00000000
 5  0.00000000
 6  0.00000000
 7  0.00000000
 8  0.00000000
 9  0.00000000
 10  0.00000000
 11  0.00000000
 12  0.00000000
Sym=X
Ene=0.00000000
Spin=Alpha
Occup=0
 1  0.00000000
 2  0.00000000
 3  0.00000000
 4  0.00000000
 5  0.00000000
 6  0.00000000
 7  0.00000000
 8  0.00000000
 9  0.00000000
 10  0.00000000
 11  0.00000000
 12  0.00000000
